 VARIABLES ="x" "y" "z"  "rho1" "u" "v" "w" "p"
 ZONE  T = B1-IG, I=191, J=41, K=2, DATAPACKING=BLOCK, VARLOCATION=([1-3]=NODAL,[4-8]=CELLCENTERED), SOLUTIONTIME=0.695325481109339E-309
 0.000000000000000E+000
 0.142450729561069E-002
 0.284758576285793E-002
 0.426781686322105E-002
 0.568380276557051E-002
 0.709417614577140E-002
 0.849760951267891E-002
 0.989282381157044E-002
 0.112785962768504E-001
 0.126537672850019E-001
 0.140172463183892E-001
 0.153680167028225E-001
 0.167051395216947E-001
 0.180277562953204E-001
 0.193350907391018E-001
 0.206264495291906E-001
 0.219012221925570E-001
 0.231588801874915E-001
 0.243989752910701E-001
 0.256211373722766E-001
 0.268250716605784E-001
 0.280105556096924E-001
 0.291774354482529E-001
 0.303256225091968E-001
 0.314550894074810E-001
 0.325658661482244E-001
 0.336580362180654E-001
 0.347317327121711E-001
 0.357871345383569E-001
 0.368244627305965E-001
 0.378439768987690E-001
 0.388459718176119E-001
 0.398307741965275E-001
 0.407987396016332E-001
 0.417502495498910E-001
 0.426857087696140E-001
 0.436055426220805E-001
 0.445101946774929E-001
 0.454001244399406E-001
 0.462758051805649E-001
 0.471377219570940E-001
 0.479863697627518E-001
 0.488222516843897E-001
 0.496458772592118E-001
 0.504577609138598E-001
 0.512584204937526E-001
 0.520483758827113E-001
 0.528281477099328E-001
 0.535982561388490E-001
 0.543592197365851E-001
 0.551115544199327E-001
 0.558557724745521E-001
 0.565923816450861E-001
 0.573218842931259E-001
 0.580447766192228E-001
 0.587615479483494E-001
 0.594726800715938E-001
 0.601786466444299E-001
 0.608799126363130E-001
 0.615769338301639E-001
 0.622701563691116E-001
 0.629600163431563E-001
 0.636469394236341E-001
 0.643313404506043E-001
 0.650136234710393E-001
 0.656941809979228E-001
 0.663733941236971E-001
 0.670516322617796E-001
 0.677292530121686E-001
 0.684066020612188E-001
 0.690840131247737E-001
 0.697618079249187E-001
 0.704402962162615E-001
 0.711197758449354E-001
 0.718005328495165E-001
 0.724828416019614E-001
 0.731669649859757E-001
 0.738531546113405E-001
 0.745416510635576E-001
 0.752326841832870E-001
 0.759264733747460E-001
 0.766232279401004E-001
 0.773231474346811E-001
 0.780264220402560E-001
 0.787332329523991E-001
 0.794437527786487E-001
 0.801581459430374E-001
 0.808765690943840E-001
 0.815991715147754E-001
 0.823260955253724E-001
 0.830574768869537E-001
 0.837934451928914E-001
 0.845341242525798E-001
 0.852796324631432E-001
 0.860300831708460E-001
 0.867855850154398E-001
 0.875462422622636E-001
 0.883121550660973E-001
 0.890834199848312E-001
 0.898601299443766E-001
 0.906423747351078E-001
 0.914302412476967E-001
 0.922238136259530E-001
 0.930231733980270E-001
 0.938284000332733E-001
 0.946395708848338E-001
 0.954567614124373E-001
 0.962800453024849E-001
 0.971094949003359E-001
 0.979451809635928E-001
 0.987871730640408E-001
 0.996355396534432E-001
 0.100490348185633E+000
 0.101351665228007E+000
 0.102219556566760E+000
 0.103094087303708E+000
 0.103975321946162E+000
 0.104863324490219E+000
 0.105758158497967E+000
 0.106659887169213E+000
 0.107568573406677E+000
 0.108484279877519E+000
 0.109407069072088E+000
 0.110337003354348E+000
 0.111274145011294E+000
 0.112218556298122E+000
 0.113170299480120E+000
 0.114129436871374E+000
 0.115096030870861E+000
 0.116070143995951E+000
 0.117051838913405E+000
 0.118041178468079E+000
 0.119038225709927E+000
 0.120043043920473E+000
 0.121055696632983E+000
 0.122076247654847E+000
 0.123104761092154E+000
 0.124141301363618E+000
 0.125185933220030E+000
 0.126238721762782E+000
 0.127299732455575E+000
 0.128369031082415E+000
 0.129446684002190E+000
 0.130532757798572E+000
 0.131627319534250E+000
 0.132730436702180E+000
 0.133842177237044E+000
 0.134962609525559E+000
 0.136091802416690E+000
 0.137229825231331E+000
 0.138376747771387E+000
 0.139532640328840E+000
 0.140697573694045E+000
 0.141871619163951E+000
 0.143054848549963E+000
 0.144247334185504E+000
 0.145449148933591E+000
 0.146660366193776E+000
 0.147881059908927E+000
 0.149111304572947E+000
 0.150351175224640E+000
 0.151600747508087E+000
 0.152860097590548E+000
 0.154129302233073E+000
 0.155408438779265E+000
 0.156697585161662E+000
 0.157996819907195E+000
 0.159306222143714E+000
 0.160625871605784E+000
 0.161955848640494E+000
 0.163296234213253E+000
 0.164647109913729E+000
 0.166008557961397E+000
 0.167380661211637E+000
 0.168763503161412E+000
 0.170157167954355E+000
 0.171561740391226E+000
 0.172977305920222E+000
 0.174403950665376E+000
 0.175841761416556E+000
 0.177290825639005E+000
 0.178751231479514E+000
 0.180223067773502E+000
 0.181706424050343E+000
 0.183201390536316E+000
 0.184708058162202E+000
 0.186226518575134E+000
 0.187756864130563E+000
 0.189299187909381E+000
 0.190853583725076E+000
 0.192420263711056E+000
 0.381579500000000E-011
 0.142501128244249E-002
 0.284859006562545E-002
 0.426931418930107E-002
 0.568578234120373E-002
 0.709662390319675E-002
 0.850050832980501E-002
 0.989615381966101E-002
 0.112823351713144E-001
 0.126578906900868E-001
 0.140217281210320E-001
 0.153728294772779E-001
 0.167102548597686E-001
 0.180331451964287E-001
 0.193407239274465E-001
 0.206322977729897E-001
 0.219072565872199E-001
 0.231650724016433E-001
 0.244052977841920E-001
 0.256275635705406E-001
 0.268315761001093E-001
 0.280171140460556E-001
 0.291840249361142E-001
 0.303322214511587E-001
 0.314616775811712E-001
 0.325724247110785E-001
 0.336645476941305E-001
 0.347381809645072E-001
 0.357935047300940E-001
 0.368307412780738E-001
 0.378501514154033E-001
 0.388520310609304E-001
 0.398367080070900E-001
 0.408045388434949E-001
 0.417559060522097E-001
 0.426912152698759E-001
 0.436108927115230E-001
 0.445153827488793E-001
 0.454051456409315E-001
 0.462806553927790E-001
 0.471423976899061E-001
 0.479908681529085E-001
 0.488265704603607E-001
 0.496500147028623E-001
 0.504617158253445E-001
 0.512621921592093E-001
 0.520519640437816E-001
 0.528315525343258E-001
 0.536014781930762E-001
 0.543622599582205E-001
 0.551144140919397E-001
 0.558584532003519E-001
 0.565948853246614E-001
 0.573242131001551E-001
 0.580469329797641E-001
 0.587635345193557E-001
 0.594744997222550E-001
 0.601803024374921E-001
 0.608814078113554E-001
 0.615782717863219E-001
 0.622713406495362E-001
 0.629610506223265E-001
 0.636478274899232E-001
 0.643320862080628E-001
 0.650142308830808E-001
 0.656946541211908E-001
 0.663737370765654E-001
 0.670518492093151E-001
 0.677293481542738E-001
 0.684065796182889E-001
 0.690838773228197E-001
 0.697615629836610E-001
 0.704399463339968E-001
 0.711193251839474E-001
 0.717999855224833E-001
 0.724822016586404E-001
 0.731662364003640E-001
 0.738523412694942E-001
 0.745407567531448E-001
 0.752317125825417E-001
 0.759254280442489E-001
 0.766221123150383E-001
 0.773219648185227E-001
 0.780251755997337E-001
 0.787319257138143E-001
 0.794423876256862E-001
 0.801567256153096E-001
 0.808750961874365E-001
 0.815976484810456E-001
 0.823245246760694E-001
 0.830558603947450E-001
 0.837917850952805E-001
 0.845324224558114E-001
 0.852778907469759E-001
 0.860283031928165E-001
 0.867837683160763E-001
 0.875443901966847E-001
 0.883102690798261E-001
 0.890815012463163E-001
 0.898581795845253E-001
 0.906403938017380E-001
 0.914282307063620E-001
 0.922217743374400E-001
 0.930211061512784E-001
 0.938263055452045E-001
 0.946374498111701E-001
 0.954546143514763E-001
 0.962778728644202E-001
 0.971072974274564E-001
 0.979429589823358E-001
 0.987849269687395E-001
 0.996332697954648E-001
 0.100488054877455E+000
 0.101349348744785E+000
 0.102217217149485E+000
 0.103091725161696E+000
 0.103972937259371E+000
 0.104860917411407E+000
 0.105755729154666E+000
 0.106657435665439E+000
 0.107566099825749E+000
 0.108481784281650E+000
 0.109404551505363E+000
 0.110334463843682E+000
 0.111271583567690E+000
 0.112215972917827E+000
 0.113167694145662E+000
 0.114126809552612E+000
 0.115093381526011E+000
 0.116067472572197E+000
 0.117049145347762E+000
 0.118038462688256E+000
 0.119035487634303E+000
 0.120040283459759E+000
 0.121052913689922E+000
 0.122073442126564E+000
 0.123101932866469E+000
 0.124138450323922E+000
 0.125183059243593E+000
 0.126235824720146E+000
 0.127296812214122E+000
 0.128366087532020E+000
 0.129443716944447E+000
 0.130529767112195E+000
 0.131624305067395E+000
 0.132727398299221E+000
 0.133839114738670E+000
 0.134959522768842E+000
 0.136088691235403E+000
 0.137226689455998E+000
 0.138373587229374E+000
 0.139529454844714E+000
 0.140694363089309E+000
 0.141868383257324E+000
 0.143051587157445E+000
 0.144244047120547E+000
 0.145445836006855E+000
 0.146657027213649E+000
 0.147877694681623E+000
 0.149107912901997E+000
 0.150347756914416E+000
 0.151597302354958E+000
 0.152856625391360E+000
 0.154125802782466E+000
 0.155404911869855E+000
 0.156694030583752E+000
 0.157993237449116E+000
 0.159302611591711E+000
 0.160622232744057E+000
 0.161952181251159E+000
 0.163292538076413E+000
 0.164643384807449E+000
 0.166004803661775E+000
 0.167376877492681E+000
 0.168759689794920E+000
 0.170153324710585E+000
 0.171557867033906E+000
 0.172973402223491E+000
 0.174400016388791E+000
 0.175837796321674E+000
 0.177286829485718E+000
 0.178747204026066E+000
 0.180219008775867E+000
 0.181702333261462E+000
 0.183197267707679E+000
 0.184703903044059E+000
 0.186222330915390E+000
 0.187752643671019E+000
 0.189294934397536E+000
 0.190849296901390E+000
 0.192415767378510E+000
-0.712494580000000E-010
 0.142652586586296E-002
 0.285160814468971E-002
 0.427381380506348E-002
 0.569173100385145E-002
 0.710397925398876E-002
 0.850921881595491E-002
 0.990615959394338E-002
 0.112935690662771E-001
 0.126702792914773E-001
 0.140351928695895E-001
 0.153872878166693E-001
 0.167256213415214E-001
 0.180493325545261E-001
 0.193576441126542E-001
 0.206498628916324E-001
 0.219253797439013E-001
 0.231836684571046E-001
 0.244242839908180E-001
 0.256468601065258E-001
 0.268511064970927E-001
 0.280368055164638E-001
 0.292038086067494E-001
 0.303520325126299E-001
 0.314814553642252E-001
 0.325921126982292E-001
 0.336840934780123E-001
 0.347575361629165E-001
 0.358126248671336E-001
 0.368495856399272E-001
 0.378686828879181E-001
 0.388702159588818E-001
 0.398545158944104E-001
 0.408219423543940E-001
 0.417728807149391E-001
 0.427077393358149E-001
 0.436269469913916E-001
 0.445309504570916E-001
 0.454202122493548E-001
 0.462952085119860E-001
 0.471564269063661E-001
 0.480043649210702E-001
 0.488395279960587E-001
 0.496624278763255E-001
 0.504735810596174E-001
 0.512735073342180E-001
 0.520627284050554E-001
 0.528417666053354E-001
 0.536111436917053E-001
 0.543713797155986E-001
 0.551229919745479E-001
 0.558664940353168E-001
 0.566023948280625E-001
 0.573311978085140E-001
 0.580534001851890E-001
 0.587694922070493E-001
 0.594799565127382E-001
 0.601852675314415E-001
 0.608858909376087E-001
 0.615822831539841E-001
 0.622748908999782E-001
 0.629641507855262E-001
 0.636504889441890E-001
 0.643343206640371E-001
 0.650160502275837E-001
 0.656960705754884E-001
 0.663747629843542E-001
 0.670524970770754E-001
 0.677296305899637E-001
 0.684065092924314E-001
 0.690834669262485E-001
 0.697608251855567E-001
 0.704388937381445E-001
 0.711179702866330E-001
 0.717983406711814E-001
 0.724802790115618E-001
 0.731640478876960E-001
 0.738498985581579E-001
 0.745380712120228E-001
 0.752287952530301E-001
 0.759222896135283E-001
 0.766187630931505E-001
 0.773184147194218E-001
 0.780214341261551E-001
 0.787280019468174E-001
 0.794382902168735E-001
 0.801524627835309E-001
 0.808706757186097E-001
 0.815930777310911E-001
 0.823198105766155E-001
 0.830510094612604E-001
 0.837868034372882E-001
 0.845273157888884E-001
 0.852726644062089E-001
 0.860229621468521E-001
 0.867783171827535E-001
 0.875388332643546E-001
 0.883046103031929E-001
 0.890757442875050E-001
 0.898523278218885E-001
 0.906344503461337E-001
 0.914221984065834E-001
 0.922156557886170E-001
 0.930149037504144E-001
 0.938200214664189E-001
 0.946310860316648E-001
 0.954481726671172E-001
 0.962713549012593E-001
 0.971007047351444E-001
 0.979362927322416E-001
 0.987781884095131E-001
 0.996264599793157E-001
 0.100481174737525E+000
 0.101342399104548E+000
 0.102210198729689E+000
 0.103084638588244E+000
 0.103965783070283E+000
 0.104853696063280E+000
 0.105748441028676E+000
 0.106650081072825E+000
 0.107558679012956E+000
 0.108474297436402E+000
 0.109396998758388E+000
 0.110326845274876E+000
 0.111263899209319E+000
 0.112208222758002E+000
 0.113159878131542E+000
 0.114118927593308E+000
 0.115085433495427E+000
 0.116059458311556E+000
 0.117041064667757E+000
 0.118030315371271E+000
 0.119027273436931E+000
 0.120032002111959E+000
 0.121044564900833E+000
 0.122065025583293E+000
 0.123093448236980E+000
 0.124129897255252E+000
 0.125174437364177E+000
 0.126227133650742E+000
 0.127288051550575E+000
 0.128357256855471E+000
 0.129434815830207E+000
 0.130520795114178E+000
 0.131615261730362E+000
 0.132718283156233E+000
 0.133829927311456E+000
 0.134950262568662E+000
 0.136079357763338E+000
 0.137217282203384E+000
 0.138364105678325E+000
 0.139519898468267E+000
 0.140684731351973E+000
 0.141858675615195E+000
 0.143041803058537E+000
 0.144234186005026E+000
 0.145435897307446E+000
 0.146647010355362E+000
 0.147867599082540E+000
 0.149097737971582E+000
 0.150337502062913E+000
 0.151586966975234E+000
 0.152846208874080E+000
 0.154115304511761E+000
 0.155394331223391E+000
 0.156683366932715E+000
 0.157982490158470E+000
 0.159291780020182E+000
 0.160611316244167E+000
 0.161941179169216E+000
 0.163281449752651E+000
 0.164632209575967E+000
 0.165993540850655E+000
 0.167365526423945E+000
 0.168748249784487E+000
 0.170141795068086E+000
 0.171546247063536E+000
 0.172961691222510E+000
 0.174388213649109E+000
 0.175825901128667E+000
 0.177274841118867E+000
 0.178735121758891E+000
 0.180206831875923E+000
 0.181690060989071E+000
 0.183184899317982E+000
 0.184691437785907E+000
 0.186209768027410E+000
 0.187739982395097E+000
 0.189282173961412E+000
 0.190836436528774E+000
 0.192402949300347E+000
-0.694638650000000E-010
 0.142905886983750E-002
 0.285665551508733E-002
 0.428133859751507E-002
 0.570167869899199E-002
 0.711627861986534E-002
 0.852378324761177E-002
 0.992288857226689E-002
 0.113123498120522E-001
 0.126909885732846E-001
 0.140576988776143E-001
 0.154114520652927E-001
 0.167513005632644E-001
 0.180763805133339E-001
 0.193859133204049E-001
 0.206792061899273E-001
 0.219556517251425E-001
 0.232147267189315E-001
 0.244559902032310E-001
 0.256790808989803E-001
 0.268837141670773E-001
 0.280696785689778E-001
 0.292368321360543E-001
 0.303850984452745E-001
 0.315144625767063E-001
 0.326249670284360E-001
 0.337167076479704E-001
 0.347898296297932E-001
 0.358445236183393E-001
 0.368810219462615E-001
 0.378995950303363E-001
 0.389005479352288E-001
 0.398842171187198E-001
 0.408509673557336E-001
 0.418011888414723E-001
 0.427352944684471E-001
 0.436537172699757E-001
 0.445569080209915E-001
 0.454453329923171E-001
 0.463194718652263E-001
 0.471798156148628E-001
 0.480268648362260E-001
 0.488611278961178E-001
 0.496831192907508E-001
 0.504933581016265E-001
 0.512923665417537E-001
 0.520806685891007E-001
 0.528587887045455E-001
 0.536272506319413E-001
 0.543865762765487E-001
 0.551372846589192E-001
 0.558798909444663E-001
 0.566149055424326E-001
 0.573428332733994E-001
 0.580641726019383E-001
 0.587794149309252E-001
 0.594890439540758E-001
 0.601935350652838E-001
 0.608933548171389E-001
 0.615889604294292E-001
 0.622807993422188E-001
 0.629693088120515E-001
 0.636549154304072E-001
 0.643380353679358E-001
 0.650190729500414E-001
 0.656984216310063E-001
 0.663764630217980E-001
 0.670535669669976E-001
 0.677300913785463E-001
 0.684063821307182E-001
 0.690827729992634E-001
 0.697595856415350E-001
 0.704371296163772E-001
 0.711157024470252E-001
 0.717955897244430E-001
 0.724770652511069E-001
 0.731603912266566E-001
 0.738458184668363E-001
 0.745335866623159E-001
 0.752239246682595E-001
 0.759170508236278E-001
 0.766131732962670E-001
 0.773124904505111E-001
 0.780151912323310E-001
 0.787214555684512E-001
 0.794314547760547E-001
 0.801453519784543E-001
 0.808633025234913E-001
 0.815854544013077E-001
 0.823119486584768E-001
 0.830429198058770E-001
 0.837784962176754E-001
 0.845188005203316E-001
 0.852639499688853E-001
 0.860140568098819E-001
 0.867692285808466E-001
 0.875295686307987E-001
 0.882951761730031E-001
 0.890661467614147E-001
 0.898425725436345E-001
 0.906245425188160E-001
 0.914121426445297E-001
 0.922054563705579E-001
 0.930045647093830E-001
 0.938095464428447E-001
 0.946204783229018E-001
 0.954374352600753E-001
 0.962604904972406E-001
 0.970897157701875E-001
 0.979251814342879E-001
 0.987669566984416E-001
 0.996151096027347E-001
 0.100469707244332E+000
 0.101330815859596E+000
 0.102198500928165E+000
 0.103072827267698E+000
 0.103953859122207E+000
 0.104841660243876E+000
 0.105736293968890E+000
 0.106637823287822E+000
 0.107546310909699E+000
 0.108461819322143E+000
 0.109384410849335E+000
 0.110314147701262E+000
 0.111251092022236E+000
 0.112195305935173E+000
 0.113146851582581E+000
 0.114105791164722E+000
 0.115072186975381E+000
 0.116046101433501E+000
 0.117027597114605E+000
 0.118016736778823E+000
 0.119013583396836E+000
 0.120018200176010E+000
 0.121030650581561E+000
 0.122050998358010E+000
 0.123079307549765E+000
 0.124115642513609E+000
 0.125160067859283E+000
 0.126212648837552E+000
 0.127273450757931E+000
 0.128342539385790E+000
 0.129419980971570E+000
 0.130505842125515E+000
 0.131600189852395E+000
 0.132703091610122E+000
 0.133814615299901E+000
 0.134934829276646E+000
 0.136063802358945E+000
 0.137201603838507E+000
 0.138348303489546E+000
 0.139503971576937E+000
 0.140668678865355E+000
 0.141842496626562E+000
 0.143025496647750E+000
 0.144217751238918E+000
 0.145419333240243E+000
 0.146630316029130E+000
 0.147850773526954E+000
 0.149080780206086E+000
 0.150320411094681E+000
 0.151569741798318E+000
 0.152828848472851E+000
 0.154097807859606E+000
 0.155376697282944E+000
 0.156665594656075E+000
 0.157964578487175E+000
 0.159273727885413E+000
 0.160593122566742E+000
 0.161922842859622E+000
 0.163262969711217E+000
 0.164613584692871E+000
 0.165974770005928E+000
 0.167346608487471E+000
 0.168729183616202E+000
 0.170122579516735E+000
 0.171526880971116E+000
 0.172942173413395E+000
 0.174368542947070E+000
 0.175806076345170E+000
 0.177254861050396E+000
 0.178714985194440E+000
 0.180186537593752E+000
 0.181669607757238E+000
 0.183164285896548E+000
 0.184670662921584E+000
 0.186188830457537E+000
 0.187718880845144E+000
 0.189260907150764E+000
 0.190815003159424E+000
 0.192381208181752E+000
-0.677437270000000E-010
 0.143262346135426E-002
 0.286375826994976E-002
 0.429192715176740E-002
 0.571567570278461E-002
 0.713358316594094E-002
 0.854427264052915E-002
 0.994642040895259E-002
 0.113387644408983E-001
 0.127201116146404E-001
 0.140893439150571E-001
 0.154454233634255E-001
 0.167873957513594E-001
 0.181143931678708E-001
 0.194256353994141E-001
 0.207204302626286E-001
 0.219981729904365E-001
 0.232583447581260E-001
 0.245005104795689E-001
 0.257243159948149E-001
 0.269294847674151E-001
 0.281158142017627E-001
 0.292831716950747E-001
 0.304314905115381E-001
 0.315607655660360E-001
 0.326710491901686E-001
 0.337624469400552E-001
 0.348351134945323E-001
 0.358892486805527E-001
 0.369250936578696E-001
 0.379429272731759E-001
 0.389430626083347E-001
 0.399258436882260E-001
 0.408916424604632E-001
 0.418408558515646E-001
 0.427739030875519E-001
 0.436912231500011E-001
 0.445932723982937E-001
 0.454805223445281E-001
 0.463534575965244E-001
 0.472125737663976E-001
 0.480583757878008E-001
 0.488913761127017E-001
 0.497120930786270E-001
 0.505210493759323E-001
 0.513187706051963E-001
 0.521057839205184E-001
 0.528826167559896E-001
 0.536497956328255E-001
 0.544078450461660E-001
 0.551572864240909E-001
 0.558986371650492E-001
 0.566324097437360E-001
 0.573591108860744E-001
 0.580792408096390E-001
 0.587932925263501E-001
 0.595017512027022E-001
 0.602050935771242E-001
 0.609037874268687E-001
 0.615982910830107E-001
 0.622890529903386E-001
 0.629765113087046E-001
 0.636610934367647E-001
 0.643432162529746E-001
 0.650232847126574E-001
 0.657016927695196E-001
 0.663788225030310E-001
 0.670550440668493E-001
 0.677307156296081E-001
 0.684061832147465E-001
 0.690817806456722E-001
 0.697578295277042E-001
 0.704346392674666E-001
 0.711125071357027E-001
 0.717917183723997E-001
 0.724725463337767E-001
 0.731552526809252E-001
 0.738400876065069E-001
 0.745272900983029E-001
 0.752170882372863E-001
 0.759096995253446E-001
 0.766053312395871E-001
 0.773041808087899E-001
 0.780064362090607E-001
 0.787122763719989E-001
 0.794218716030969E-001
 0.801353840065009E-001
 0.808529679113484E-001
 0.815747702968199E-001
 0.823009312127759E-001
 0.830315841932660E-001
 0.837668566608029E-001
 0.845068703184558E-001
 0.852517415297689E-001
 0.860015816766549E-001
 0.867564975356797E-001
 0.875165915810734E-001
 0.882819623201876E-001
 0.890527045933660E-001
 0.898289098622642E-001
 0.906106664830083E-001
 0.913980599574231E-001
 0.921911731145241E-001
 0.929900863935929E-001
 0.937948780946650E-001
 0.946056245200535E-001
 0.954224001590580E-001
 0.962452778591712E-001
 0.970743289867354E-001
 0.979096235754942E-001
 0.987512304651001E-001
 0.995992174278199E-001
 0.100453651280123E+000
 0.101314598005699E+000
 0.102182122845574E+000
 0.103056290397524E+000
 0.103937164701891E+000
 0.104824809322202E+000
 0.105719287419863E+000
 0.106620661823321E+000
 0.107528995092155E+000
 0.108444349576651E+000
 0.109366787470648E+000
 0.110296370865218E+000
 0.111233161794685E+000
 0.112177222279708E+000
 0.113128614368031E+000
 0.114087400171959E+000
 0.115053641902983E+000
 0.116027401904791E+000
 0.117008742682340E+000
 0.117997726930023E+000
 0.118994417557851E+000
 0.119998877715403E+000
 0.121011170814093E+000
 0.122031360550405E+000
 0.123059510921687E+000
 0.124095686239990E+000
 0.125139951184378E+000
 0.126192370750474E+000
 0.127253010322192E+000
 0.128321935637312E+000
 0.129399212889362E+000
 0.130484908681304E+000
 0.131579089982278E+000
 0.132681824222892E+000
 0.133793179278420E+000
 0.134913223479094E+000
 0.136042025619897E+000
 0.137179654970121E+000
 0.138326181282131E+000
 0.139481674800114E+000
 0.140646206268489E+000
 0.141819846939901E+000
 0.143002668582712E+000
 0.144194743488747E+000
 0.145396144480490E+000
 0.146606944918176E+000
 0.147827218706728E+000
 0.149057040305233E+000
 0.150296484718023E+000
 0.151545627540037E+000
 0.152804544910963E+000
 0.154073313556891E+000
 0.155352010787025E+000
 0.156640714499718E+000
 0.157939503188467E+000
 0.159248455947912E+000
 0.160567652479502E+000
 0.161897173097309E+000
 0.163237098734217E+000
 0.164587510947379E+000
 0.165948491923975E+000
 0.167320124486965E+000
 0.168702492100751E+000
 0.170095678876192E+000
 0.171499769580715E+000
 0.172914849634666E+000
 0.174341005126259E+000
 0.175778322816618E+000
 0.177226890133681E+000
 0.178686795193267E+000
 0.180158126798452E+000
 0.181640974444433E+000
 0.183135428327588E+000
 0.184641579337198E+000
 0.186159519099243E+000
 0.187689339926776E+000
 0.189231134872178E+000
 0.190784997713676E+000
 0.192351078732764E+000
-0.660607120000000E-010
 0.143723831232211E-002
 0.287295340694598E-002
 0.430563409730654E-002
 0.573379333992587E-002
 0.715597959394261E-002
 0.857078753719733E-002
 0.997686788764420E-002
 0.113729361147968E-001
 0.127577800565047E-001
 0.141302661866239E-001
 0.154893445825172E-001
 0.168340526175884E-001
 0.181635173517602E-001
 0.194769567227425E-001
 0.207736796113996E-001
 0.220530849261174E-001
 0.233146597898661E-001
 0.245579769928056E-001
 0.257826918336486E-001
 0.269885384823568E-001
 0.281753259796996E-001
 0.293429340045976E-001
 0.304913084865519E-001
 0.316204571650625E-001
 0.327304451643665E-001
 0.338213906435202E-001
 0.348934605688235E-001
 0.359468666418840E-001
 0.369818614191194E-001
 0.379987346131914E-001
 0.389978096308348E-001
 0.399794402273215E-001
 0.409440075413200E-001
 0.418919171459801E-001
 0.428235964037776E-001
 0.437394919085457E-001
 0.446400671732466E-001
 0.455258004231647E-001
 0.463971825680672E-001
 0.472547151617389E-001
 0.480989086982286E-001
 0.489302808628047E-001
 0.497493549151415E-001
 0.505566581715523E-001
 0.513527205762113E-001
 0.521380733565379E-001
 0.529132477601135E-001
 0.536787738711124E-001
 0.544351795048514E-001
 0.551829891775618E-001
 0.559227231497869E-001
 0.566548965427698E-001
 0.573800185227416E-001
 0.580985915514819E-001
 0.588111106994495E-001
 0.595180630177598E-001
 0.602199269638525E-001
 0.609171718810755E-001
 0.616102575218534E-001
 0.622996336161371E-001
 0.629857394797620E-001
 0.636690035454284E-001
 0.643498436021109E-001
 0.650286654043468E-001
 0.657058635722852E-001
 0.663818207380973E-001
 0.670569075277749E-001
 0.677314823957493E-001
 0.684058915667826E-001
 0.690804689276697E-001
 0.697555360177045E-001
 0.704314020452705E-001
 0.711083639599101E-001
 0.717867065413795E-001
 0.724667025684022E-001
 0.731486130042354E-001
 0.738326872312863E-001
 0.745191633246449E-001
 0.752082683596957E-001
 0.759002187511525E-001
 0.765952206193670E-001
 0.772934701790042E-001
 0.779951541481653E-001
 0.787004501673642E-001
 0.794095272311566E-001
 0.801225461237076E-001
 0.808396598556009E-001
 0.815610140983624E-001
 0.822867476135071E-001
 0.830169926733601E-001
 0.837518754718557E-001
 0.844915165204918E-001
 0.852360310471328E-001
 0.859855293101941E-001
 0.867401170340508E-001
 0.874998956890059E-001
 0.882649628252020E-001
 0.890354123758316E-001
 0.898113349443139E-001
 0.905928180737841E-001
 0.913799464917129E-001
 0.921728023212959E-001
 0.929714653660753E-001
 0.937760132838919E-001
 0.945865217859270E-001
 0.954030648137172E-001
 0.962257147054910E-001
 0.970545423536459E-001
 0.978896173510785E-001
 0.987310081265415E-001
 0.995787820905602E-001
 0.100433005670786E+000
 0.101293744540749E+000
 0.102161063640249E+000
 0.103035027285095E+000
 0.103915699255175E+000
 0.104803142872790E+000
 0.105697421075957E+000
 0.106598596486263E+000
 0.107506731471684E+000
 0.108421888204866E+000
 0.109344128716546E+000
 0.110273514944348E+000
 0.111210108781992E+000
 0.112153972119410E+000
 0.113105166883117E+000
 0.114063755072947E+000
 0.115029798796076E+000
 0.116003360298670E+000
 0.116984501996147E+000
 0.117973286498741E+000
 0.118969776640269E+000
 0.119974035491734E+000
 0.120986126402597E+000
 0.122006112994466E+000
 0.123034059230019E+000
 0.124070029349786E+000
 0.125114087970819E+000
 0.126166300054495E+000
 0.127226730932028E+000
 0.128295446299149E+000
 0.129372512313021E+000
 0.130457995531472E+000
 0.131551962889171E+000
 0.132654481781895E+000
 0.133765620051754E+000
 0.134885445997351E+000
 0.136014028383552E+000
 0.137151436450637E+000
 0.138297739923235E+000
 0.139453009018923E+000
 0.140617314456386E+000
 0.141790727463391E+000
 0.142973319784382E+000
 0.144165163687877E+000
 0.145366331973724E+000
 0.146576897980092E+000
 0.147796935585190E+000
 0.149026519243716E+000
 0.150265723923529E+000
 0.151514625202362E+000
 0.152773299201375E+000
 0.154041822627144E+000
 0.155320272769581E+000
 0.156608727507965E+000
 0.157907265316953E+000
 0.159215965272471E+000
 0.160534907057266E+000
 0.161864170967198E+000
 0.163203837916604E+000
 0.164553989444435E+000
 0.165914707719680E+000
 0.167286075547142E+000
 0.168668176373152E+000
 0.170061094290735E+000
 0.171464914047376E+000
 0.172879721048056E+000
 0.174305601361548E+000
 0.175742641730514E+000
 0.177190929560255E+000
 0.178650552960185E+000
 0.180121600704440E+000
 0.181604162272905E+000
 0.183098327844719E+000
 0.184604188287581E+000
 0.186121835211380E+000
 0.187651360905274E+000
 0.189192858408975E+000
 0.190746421478576E+000
 0.192312095664798E+000
-0.644145360000000E-010
 0.144292784481862E-002
 0.288428931057148E-002
 0.432253087817908E-002
 0.575612479093793E-002
 0.718358115307033E-002
 0.860345929978300E-002
 0.100143781596530E-001
 0.114150254379637E-001
 0.128041654599211E-001
 0.141806456638971E-001
 0.155434016112630E-001
 0.168914605732800E-001
 0.182239437540222E-001
 0.195400671965521E-001
 0.208391415195259E-001
 0.221205705891906E-001
 0.233838492861787E-001
 0.246285605160710E-001
 0.258543716137393E-001
 0.270610302787996E-001
 0.282483601896608E-001
 0.294162564037281E-001
 0.305646806527980E-001
 0.316936566255071E-001
 0.328032653088225E-001
 0.338936404474397E-001
 0.349649641645888E-001
 0.360174627811763E-001
 0.370514028476993E-001
 0.380670874155315E-001
 0.390648524646248E-001
 0.400450637135172E-001
 0.410081134979160E-001
 0.419544179316675E-001
 0.428844142382514E-001
 0.437985583279977E-001
 0.446973223988045E-001
 0.455811928405806E-001
 0.464506682223582E-001
 0.473062573221385E-001
 0.481484774012646E-001
 0.489778525131228E-001
 0.497949119086390E-001
 0.506001885371842E-001
 0.513942176340953E-001
 0.521775353900420E-001
 0.529506776999236E-001
 0.537141789899124E-001
 0.544685711214968E-001
 0.552143823720014E-001
 0.559521364872973E-001
 0.566823518094867E-001
 0.574055404729036E-001
 0.581222076672433E-001
 0.588328509638674E-001
 0.595379597012795E-001
 0.602380144251749E-001
 0.609334863785970E-001
 0.616248370396452E-001
 0.623125176991792E-001
 0.629969689719687E-001
 0.636786208694637E-001
 0.643578919706773E-001
 0.650351891023007E-001
 0.657109077142948E-001
 0.663854311228392E-001
 0.670591304962684E-001
 0.677323646952804E-001
 0.684054801585800E-001
 0.690788108619789E-001
 0.697526782654272E-001
 0.704273913370382E-001
 0.711032466211332E-001
 0.717805283412540E-001
 0.724595085569105E-001
 0.731404473684207E-001
 0.738235931559500E-001
 0.745091828645907E-001
 0.751974423247605E-001
 0.758885866054141E-001
 0.765828203952229E-001
 0.772803384079485E-001
 0.779813258055468E-001
 0.786859586340077E-001
 0.793944042695396E-001
 0.801068218681094E-001
 0.808233628152154E-001
 0.815441711721030E-001
 0.822693841151529E-001
 0.829991323658100E-001
 0.837335406084090E-001
 0.844727278928257E-001
 0.852168080459589E-001
 0.859658899616445E-001
 0.867200780763630E-001