 VARIABLES ="x" "y" "z"
 ZONE  T = Block1, I=161, J=41, K=2, DATAPACKING=BLOCK, VARLOCATION=([1-3]=NODAL), SOLUTIONTIME=0.100000000000000E+002, STRANDID = 0
 0.000000000000000E+000
-0.981684618301612E-002
-0.196299077851329E-001
-0.294354017004287E-001
-0.392295477241947E-001
-0.490085700103529E-001
-0.587686985300775E-001
-0.685061706002549E-001
-0.782172322379460E-001
-0.878981396516727E-001
-0.975451606845534E-001
-0.107154576197959E+000
-0.116722681558163E+000
-0.126245788097991E+000
-0.135720224484552E+000
-0.145142338134918E+000
-0.154508496672193E+000
-0.163815089243639E+000
-0.173058527970660E+000
-0.182235249332926E+000
-0.191341715541786E+000
-0.200374415864659E+000
-0.209329868036150E+000
-0.218204619585419E+000
-0.226995249127713E+000
-0.235698367684532E+000
-0.244310619983468E+000
-0.252828685890840E+000
-0.261249281530588E+000
-0.269569160604002E+000
-0.277785115641180E+000
-0.285893979225059E+000
-0.293892625234609E+000
-0.301777970041115E+000
-0.309546973692661E+000
-0.317196641086315E+000
-0.324724023188028E+000
-0.332126217996140E+000
-0.339400371800868E+000
-0.346543680276958E+000
-0.353553389562924E+000
-0.360426797293263E+000
-0.367161253646586E+000
-0.373754162366651E+000
-0.380202981757063E+000
-0.386505225662163E+000
-0.392658464418644E+000
-0.398660325866699E+000
-0.404508496172615E+000
-0.410200720758731E+000
-0.415734805171919E+000
-0.421108615915581E+000
-0.426320081254449E+000
-0.431367192075084E+000
-0.436248002629539E+000
-0.440960631284724E+000
-0.445503261236870E+000
-0.449874141198257E+000
-0.454071586112080E+000
-0.458093977783643E+000
-0.461939765504282E+000
-0.465607466656140E+000
-0.469095667268410E+000
-0.472403022569079E+000
-0.475528257511329E+000
-0.478470167263607E+000
-0.481227617663798E+000
-0.483799545651627E+000
-0.486184959705692E+000
-0.488382940204843E+000
-0.490392639784002E+000
-0.492213283666043E+000
-0.493844169958354E+000
-0.495284669920498E+000
-0.496534228213328E+000
-0.497592363111230E+000
-0.498458666683264E+000
-0.499132804952654E+000
-0.499614518026164E+000
-0.499903620193509E+000
-0.500000000000000E+000
-0.499903620289139E+000
-0.499614518215005E+000
-0.499132805231745E+000
-0.498458667049092E+000
-0.497592363558008E+000
-0.496534228736819E+000
-0.495284670520088E+000
-0.493844170634877E+000
-0.492213284421773E+000
-0.490392640622676E+000
-0.488382941118881E+000
-0.486184960687184E+000
-0.483799546695088E+000
-0.481227618765702E+000
-0.478470168421322E+000
-0.475528258702111E+000
-0.472403023778823E+000
-0.469095668504677E+000
-0.465607467931721E+000
-0.461939766815337E+000
-0.458093979101407E+000
-0.454071587452142E+000
-0.449874142578904E+000
-0.445503262670483E+000
-0.440960632767521E+000
-0.436248004154256E+000
-0.431367193630257E+000
-0.426320082835434E+000
-0.421108617526273E+000
-0.415734806826545E+000
-0.410200722423508E+000
-0.404508497850203E+000
-0.398660327570185E+000
-0.392658466152658E+000
-0.386505227401492E+000
-0.380202983509424E+000
-0.373754164130303E+000
-0.367161255415495E+000
-0.360426799059046E+000
-0.353553391317043E+000
-0.346543681981734E+000
-0.339400373452527E+000
-0.332126219624367E+000
-0.324724024824350E+000
-0.317196642729532E+000
-0.309546975302214E+000
-0.301777971622898E+000
-0.293892626775584E+000
-0.285893980720006E+000
-0.277785117121413E+000
-0.269569162069822E+000
-0.261249282937824E+000
-0.252828687229406E+000
-0.244310621262230E+000
-0.235698368915119E+000
-0.226995250343671E+000
-0.218204620785280E+000
-0.209329869197939E+000
-0.200374416964967E+000
-0.191341716575761E+000
-0.182235250303491E+000
-0.173058528867685E+000
-0.163815090076806E+000
-0.154508497454679E+000
-0.145142338866482E+000
-0.135720225137595E+000
-0.126245788685970E+000
-0.116722682090374E+000
-0.107154576685159E+000
-0.975451611447179E-001
-0.878981400941366E-001
-0.782172326439425E-001
-0.685061709580504E-001
-0.587686988325494E-001
-0.490085702525139E-001
-0.392295479375096E-001
-0.294354018816851E-001
-0.196299079169853E-001
-0.981684624907737E-002
 0.000000000000000E+000
 0.000000000000000E+000
-0.101849779150895E-001
-0.203660293274855E-001
-0.305392292648640E-001
-0.407006557648561E-001
-0.508463913871205E-001
-0.609725247264408E-001
-0.710751519991415E-001
-0.811503784481888E-001
-0.911943198900002E-001
-0.101203104211699E+000
-0.111172872807111E+000
-0.121099782118484E+000
-0.130980005153387E+000
-0.140809732904089E+000
-0.150585175816329E+000
-0.160302565299454E+000
-0.169958155092999E+000
-0.179548222772672E+000
-0.189069071186142E+000
-0.198517029877954E+000
-0.207888456463768E+000
-0.217179738092471E+000
-0.226387292824935E+000
-0.235507570974357E+000
-0.244537056475896E+000
-0.253472268236229E+000
-0.262309761615823E+000
-0.271046129592693E+000
-0.279678004131843E+000
-0.288202057483629E+000
-0.296615003453071E+000
-0.304913598688100E+000
-0.313094643924538E+000
-0.321154985212818E+000
-0.329091515134120E+000
-0.336901174063965E+000
-0.344580951176655E+000
-0.352127885748648E+000
-0.359539068292669E+000
-0.366811641677447E+000
-0.373942802198180E+000
-0.380929800664788E+000
-0.387769943461832E+000
-0.394460593579300E+000
-0.400999171630322E+000
-0.407383156839493E+000
-0.413610088091150E+000
-0.419677564783041E+000
-0.425583247790875E+000
-0.431324860369389E+000
-0.436900189014905E+000
-0.442307084303231E+000
-0.447543461779484E+000
-0.452607302729873E+000
-0.457496654959272E+000
-0.462209633534577E+000
-0.466744421494763E+000
-0.471099270592829E+000
-0.475272501951795E+000
-0.479262506711921E+000
-0.483067746657290E+000
-0.486686754792604E+000
-0.490118135916991E+000
-0.493360567169422E+000
-0.496412798537167E+000
-0.499273653326652E+000
-0.501942028613692E+000
-0.504416895694690E+000
-0.506697300462546E+000
-0.508782363775837E+000
-0.510671281803312E+000
-0.512363326331536E+000
-0.513857845042385E+000
-0.515154261771421E+000
-0.516252076728169E+000
-0.517150866684095E+000
-0.517850285138406E+000
-0.518350062452027E+000
-0.518650005950565E+000
-0.518749999999723E+000
-0.518650006049594E+000
-0.518350062647614E+000
-0.517850285427460E+000
-0.517150867062945E+000
-0.516252077190954E+000
-0.515154262313998E+000
-0.513857845664104E+000
-0.512363327033056E+000
-0.510671282586608E+000
-0.508782364644271E+000
-0.506697301408730E+000
-0.504416896710763E+000
-0.501942029693812E+000
-0.499273654466866E+000
-0.496412799734848E+000
-0.493360568402515E+000
-0.490118137171295E+000
-0.486686756075557E+000
-0.483067747981576E+000
-0.479262508073656E+000
-0.475272503322774E+000
-0.471099271988718E+000
-0.466744422933761E+000
-0.462209635028643E+000
-0.457496656503688E+000
-0.452607304315892E+000
-0.447543463396290E+000
-0.442307085946490E+000
-0.436900190688886E+000
-0.431324862089241E+000
-0.425583249523584E+000
-0.419677566529444E+000
-0.413610089863187E+000
-0.407383158641340E+000
-0.400999173437019E+000
-0.394460595399308E+000
-0.387769945293479E+000
-0.380929802501596E+000
-0.373942804031412E+000
-0.366811643498972E+000
-0.359539070065380E+000
-0.352127887467559E+000
-0.344580952870717E+000
-0.336901175764343E+000
-0.329091516839527E+000
-0.321154986882239E+000
-0.313094645563677E+000
-0.304913600284042E+000
-0.296615005001228E+000
-0.288202059016652E+000
-0.279678005651049E+000
-0.271046131053149E+000
-0.262309763006994E+000
-0.253472269566944E+000
-0.244537057758267E+000
-0.235507572240934E+000
-0.226387294073667E+000
-0.217179739300810E+000
-0.207888457607899E+000
-0.198517030952925E+000
-0.189069072195348E+000
-0.179548223705824E+000
-0.169958155960216E+000
-0.160302566114470E+000
-0.150585176579093E+000
-0.140809733585644E+000
-0.130980005767122E+000
-0.121099782673823E+000
-0.111172873315415E+000
-0.101203104692328E+000
-0.911943203522448E-001
-0.811503788718625E-001
-0.710751523718772E-001
-0.609725250409761E-001
-0.508463916385224E-001
-0.407006559861292E-001
-0.305392294529228E-001
-0.203660294643402E-001
-0.101849779836595E-001
 0.000000000000000E+000
 0.000000000000000E+000
-0.105531096471629E-001
-0.211021508698381E-001
-0.316430568292992E-001
-0.421717638055175E-001
-0.526842127638882E-001
-0.631763509228041E-001
-0.736441333980280E-001
-0.840835246584316E-001
-0.944905001283276E-001
-0.104861047738844E+000
-0.115191169416262E+000
-0.125476882678806E+000
-0.135714222208782E+000
-0.145899241323626E+000
-0.156028013497740E+000
-0.166096633926715E+000
-0.176101220942360E+000
-0.186037917574684E+000
-0.195902893039359E+000
-0.205692344214122E+000
-0.215402497062876E+000
-0.225029608148792E+000
-0.234569966064452E+000
-0.244019892821000E+000
-0.253375745267261E+000
-0.262633916488990E+000
-0.271790837340806E+000
-0.280842977654798E+000
-0.289786847659684E+000
-0.298618999326077E+000
-0.307336027681082E+000
-0.315934572141591E+000
-0.324411317807962E+000
-0.332762996732974E+000
-0.340986389181926E+000
-0.349078324939901E+000
-0.357035684357171E+000
-0.364855399696427E+000
-0.372534456308380E+000
-0.380069893791970E+000
-0.387458807103097E+000
-0.394698347682991E+000
-0.401785724557014E+000
-0.408718205401537E+000
-0.415493117598480E+000
-0.422107849260342E+000
-0.428559850315601E+000
-0.434846633393468E+000
-0.440965774823019E+000
-0.446914915566858E+000
-0.452691762114228E+000
-0.458294087352013E+000
-0.463719731483883E+000
-0.468966602830207E+000
-0.474032678633819E+000
-0.478916005832284E+000
-0.483614701791269E+000
-0.488126955073577E+000
-0.492451026119947E+000
-0.496585247919560E+000
-0.500528026658440E+000
-0.504277842316797E+000
-0.507833249264902E+000
-0.511192876827515E+000
-0.514355429810726E+000
-0.517319688989506E+000
-0.520084511575756E+000
-0.522648831683688E+000
-0.525011660720250E+000
-0.527172087767672E+000
-0.529129279940581E+000
-0.530882482704718E+000
-0.532431020164272E+000
-0.533774295329513E+000
-0.534911790345107E+000
-0.535843066684925E+000
-0.536567765324158E+000
-0.537085606877890E+000
-0.537396391707621E+000
-0.537499999999445E+000
-0.537396391810049E+000
-0.537085607080222E+000
-0.536567765623174E+000
-0.535843067076797E+000
-0.534911790823900E+000
-0.533774295891177E+000
-0.532431020808119E+000
-0.530882483431236E+000
-0.529129280751443E+000
-0.527172088665865E+000
-0.525011661698578E+000
-0.522648832734341E+000
-0.520084512692535E+000
-0.517319690168030E+000
-0.514355431048375E+000
-0.511192878102919E+000
-0.507833250563766E+000
-0.504277843646437E+000
-0.500528028031431E+000
-0.496585249331974E+000
-0.492451027544140E+000
-0.488126956525294E+000
-0.483614703288618E+000
-0.478916007386803E+000
-0.474032680239856E+000
-0.468966604477528E+000
-0.463719733162323E+000
-0.458294089057545E+000
-0.452691763851499E+000
-0.446914917351936E+000
-0.440965776623659E+000
-0.434846635208686E+000
-0.428559852156188E+000
-0.422107851130023E+000
-0.415493119472545E+000
-0.408718207289191E+000
-0.401785726456655E+000
-0.394698349587697E+000
-0.387458809003777E+000
-0.380069895680901E+000
-0.372534458149027E+000
-0.364855401482591E+000
-0.357035686117065E+000
-0.349078326704336E+000
-0.340986390949522E+000
-0.332762998462264E+000
-0.324411319504456E+000
-0.315934573792500E+000
-0.307336029282450E+000
-0.298619000911891E+000
-0.289786849232275E+000
-0.280842979168474E+000
-0.271790838784582E+000
-0.262633917871658E+000
-0.253375746601416E+000
-0.244019894138198E+000
-0.234569967362054E+000
-0.225029609403682E+000
-0.215402498250831E+000
-0.205692345330089E+000
-0.195902894087204E+000
-0.186037918543963E+000
-0.176101221843627E+000
-0.166096634774262E+000
-0.156028014291705E+000
-0.145899242033692E+000
-0.135714222848275E+000
-0.125476883257272E+000
-0.115191169945670E+000
-0.104861048239937E+000
-0.944905006103530E-001
-0.840835250997825E-001
-0.736441337857039E-001
-0.631763512494028E-001
-0.526842130245308E-001
-0.421717640347487E-001
-0.316430570241605E-001
-0.211021510116951E-001
-0.105531097182416E-001
 0.000000000000000E+000
 0.000000000000000E+000
-0.109212413792362E-001
-0.218382724121907E-001
-0.327468843937344E-001
-0.436428718461789E-001
-0.545220341406559E-001
-0.653801771191674E-001
-0.762131147969145E-001
-0.870166708686744E-001
-0.977866803666550E-001
-0.108518991265990E+000
-0.119209466025414E+000
-0.129853983239128E+000
-0.140448439264178E+000
-0.150988749743164E+000
-0.161470851179150E+000
-0.171890702553975E+000
-0.182244286791720E+000
-0.192527612376696E+000
-0.202736714892575E+000
-0.212867658550290E+000
-0.222916537661985E+000
-0.232879478205112E+000
-0.242752639303969E+000
-0.252532214667643E+000
-0.262214434058626E+000
-0.271795564741751E+000
-0.281271913065789E+000
-0.290639825716903E+000
-0.299895691187526E+000
-0.309035941168526E+000
-0.318057051909094E+000
-0.326955545595083E+000
-0.335727991691386E+000
-0.344371008253131E+000
-0.352881263229732E+000
-0.361255475815837E+000
-0.369490417537686E+000
-0.377582913644206E+000
-0.385529844324092E+000
-0.393328145906494E+000
-0.400974812008015E+000
-0.408466894701193E+000
-0.415801505652195E+000
-0.422975817223775E+000
-0.429987063566639E+000
-0.436832541681192E+000
-0.443509612540053E+000
-0.450015702003895E+000
-0.456348301855162E+000
-0.462504970764327E+000
-0.468483335213551E+000
-0.474281090400796E+000
-0.479896001188283E+000
-0.485325902930541E+000
-0.490568702308366E+000
-0.495622378129992E+000
-0.500484982087776E+000
-0.505154639554325E+000
-0.509629550288100E+000
-0.513907989127199E+000
-0.517988306659590E+000
-0.521868929840991E+000
-0.525548362612814E+000
-0.529025186485607E+000
-0.532298061084285E+000
-0.535365724652360E+000
-0.538226994537821E+000
-0.540880767672686E+000
-0.543326020977954E+000
-0.545561811759507E+000
-0.547587278077850E+000
-0.549401639077900E+000
-0.551004195286159E+000
-0.552394328887606E+000
-0.553571503962046E+000
-0.554535266685756E+000
-0.555285245509910E+000
-0.555821151303752E+000
-0.556142777464677E+000
-0.556249999999167E+000
-0.556142777570504E+000
-0.555821151512831E+000
-0.555285245818888E+000
-0.554535267090650E+000
-0.553571504456846E+000
-0.552394329468356E+000
-0.551004195952135E+000
-0.549401639829416E+000
-0.547587278916278E+000
-0.545561812687460E+000
-0.543326021988427E+000
-0.540880768757920E+000
-0.538226995691259E+000
-0.535365725869195E+000
-0.532298062361902E+000
-0.529025187803322E+000
-0.525548363956237E+000
-0.521868931217318E+000
-0.517988308081287E+000
-0.513907990590293E+000
-0.509629551765507E+000
-0.505154641061870E+000
-0.500484983643475E+000
-0.495622379744963E+000
-0.490568703976024E+000
-0.485325904639165E+000
-0.479896002928355E+000
-0.474281092168601E+000
-0.468483337014111E+000
-0.462504972614632E+000
-0.456348303723736E+000
-0.450015703887927E+000
-0.443509614449190E+000
-0.436832543618705E+000
-0.429987065508072E+000
-0.422975819179075E+000
-0.415801507619831E+000
-0.408466896673798E+000
-0.400974813976143E+000
-0.393328147862831E+000
-0.385529846232673E+000
-0.377582915497623E+000
-0.369490419363415E+000
-0.361255477644329E+000
-0.352881265059517E+000
-0.344371010042289E+000
-0.335727993445234E+000
-0.326955547300958E+000
-0.318057053563672E+000
-0.309035942807130E+000
-0.299895692813502E+000
-0.290639827283800E+000
-0.281271914562170E+000
-0.271795566176372E+000
-0.262214435444564E+000
-0.252532216035461E+000
-0.242752640650441E+000
-0.232879479506554E+000
-0.222916538893763E+000
-0.212867659707253E+000
-0.202736715979060E+000
-0.192527613382101E+000
-0.182244287727037E+000
-0.171890703434053E+000
-0.161470852004317E+000
-0.150988750481740E+000
-0.140448439929428E+000
-0.129853983840721E+000
-0.119209466575925E+000
-0.108518991787547E+000
-0.977866808684612E-001
-0.870166713277025E-001
-0.762131151995307E-001
-0.653801774578295E-001
-0.545220344105393E-001
-0.436428720833683E-001
-0.327468845953982E-001
-0.218382725590500E-001
-0.109212414528237E-001
 0.000000000000000E+000
 0.000000000000000E+000
-0.112893731113096E-001
-0.225743939545434E-001
-0.338507119581697E-001
-0.451139798868403E-001
-0.563598555174235E-001
-0.675840033155306E-001
-0.787820961958010E-001
-0.899498170789172E-001
-0.101082860604982E+000
-0.112176934793135E+000
-0.123227762634565E+000
-0.134231083799450E+000
-0.145182656319574E+000
-0.156078258162701E+000
-0.166913688860561E+000
-0.177684771181236E+000
-0.188387352641081E+000
-0.199017307178707E+000
-0.209570536745791E+000
-0.220042972886459E+000
-0.230430578261093E+000
-0.240729348261433E+000
-0.250935312543486E+000
-0.261044536514286E+000
-0.271053122849990E+000
-0.280957212994512E+000
-0.290752988790772E+000
-0.300436673779008E+000
-0.310004534715367E+000
-0.319452883010975E+000
-0.328778076137106E+000
-0.337976519048574E+000
-0.347044665574810E+000
-0.355979019773287E+000
-0.364776137277537E+000
-0.373432626691774E+000
-0.381945150718201E+000
-0.390310427591986E+000
-0.398525232339803E+000
-0.406586398021016E+000
-0.414490816912932E+000
-0.422235441719395E+000
-0.429817286747376E+000
-0.437233429046012E+000
-0.444481009534797E+000
-0.451557234102041E+000
-0.458459374764504E+000
-0.465184770614321E+000
-0.471730828887306E+000
-0.478095025961796E+000
-0.484274908312874E+000
-0.490268093449578E+000
-0.496072270892682E+000
-0.501685203030875E+000
-0.507104725982914E+000
-0.512328750427699E+000
-0.517355262384282E+000
-0.522182324035074E+000
-0.526808074456252E+000
-0.531230730334838E+000
-0.535448586660740E+000
-0.539460017365185E+000
-0.543263475960726E+000
-0.546857496143700E+000
-0.550240692357845E+000
-0.553411760315214E+000
-0.556369477499885E+000
-0.559112703661684E+000
-0.561640381235657E+000
-0.563951535751341E+000
-0.566045276215118E+000
-0.567920795451082E+000
-0.569577370408046E+000
-0.571014362445699E+000
-0.572231217578984E+000
-0.573227466686587E+000
-0.574002725695661E+000
-0.574556695729615E+000
-0.574889163221732E+000
-0.574999999998890E+000
-0.574889163330958E+000
-0.574556695945439E+000
-0.574002726014603E+000
-0.573227467104502E+000
-0.572231218089792E+000
-0.571014363045534E+000
-0.569577371096151E+000
-0.567920796227595E+000
-0.566045277081113E+000
-0.563951536709055E+000
-0.561640382278275E+000
-0.559112704781499E+000
-0.556369478689983E+000
-0.553411761570359E+000
-0.550240693675428E+000
-0.546857497503726E+000
-0.543263477348708E+000
-0.539460018788198E+000
-0.535448588131142E+000
-0.531230731848611E+000
-0.526808075986873E+000
-0.522182325598446E+000
-0.517355263998331E+000
-0.512328752103123E+000
-0.507104727712191E+000
-0.501685204800801E+000
-0.496072272694388E+000
-0.490268095279656E+000
-0.484274910176724E+000
-0.478095027877327E+000
-0.471730830823811E+000
-0.465184772567169E+000
-0.458459376742191E+000
-0.451557236107387E+000
-0.444481011543598E+000
-0.437233431068959E+000
-0.429817288783007E+000
-0.422235443759900E+000
-0.414490818948509E+000
-0.406586400044760E+000
-0.398525234316319E+000
-0.390310429512655E+000
-0.381945152609764E+000
-0.373432628584322E+000
-0.364776139169512E+000
-0.355979021622314E+000
-0.347044667386013E+000
-0.337976520809416E+000
-0.328778077844893E+000
-0.319452884702368E+000
-0.310004536394729E+000
-0.300436675399125E+000
-0.290752990339758E+000
-0.280957214481085E+000
-0.271053124287712E+000
-0.261044537932724E+000
-0.250935313938828E+000
-0.240729349609426E+000
-0.230430579536694E+000
-0.220042974084417E+000
-0.209570537870917E+000
-0.199017308220240E+000
-0.188387353610447E+000
-0.177684772093845E+000
-0.166913689716928E+000
-0.156078258929788E+000
-0.145182657010580E+000
-0.134231084424170E+000
-0.123227763206180E+000
-0.112176935335157E+000
-0.101082861126569E+000
-0.899498175556224E-001
-0.787820966133574E-001
-0.675840036662561E-001
-0.563598557965477E-001
-0.451139801319878E-001
-0.338507121666360E-001
-0.225743941064048E-001
-0.112893731874058E-001
 0.000000000000000E+000
 0.000000000000000E+000
-0.116575048433830E-001
-0.233105154968960E-001
-0.349545395226049E-001
-0.465850879275018E-001
-0.581976768941912E-001
-0.697878295118939E-001
-0.813510775946875E-001
-0.928829632891600E-001
-0.104379040843310E+000
-0.115834878320281E+000
-0.127246059243716E+000
-0.138608184359771E+000
-0.149916873374970E+000
-0.161167766582238E+000
-0.172356526541972E+000
-0.183478839808497E+000
-0.194530418490441E+000
-0.205507001980720E+000
-0.216404358599008E+000
-0.227218287222627E+000
-0.237944618860202E+000
-0.248579218317754E+000
-0.259117985783002E+000
-0.269556858360929E+000
-0.279891811641355E+000
-0.290118861247274E+000
-0.300234064515755E+000
-0.310233521841114E+000
-0.320113378243209E+000
-0.329869824853423E+000
-0.339499100365117E+000
-0.348997492502066E+000
-0.358361339458234E+000
-0.367587031293444E+000
-0.376671011325343E+000
-0.385609777567710E+000
-0.394399883898717E+000
-0.403037941539766E+000
-0.411520620355515E+000
-0.419844650135539E+000
-0.428006821817849E+000
-0.436003988737598E+000
-0.443833067842558E+000
-0.451491040868249E+000
-0.458974955502956E+000
-0.466281926522890E+000
-0.473409136988955E+000
-0.480353839224748E+000
-0.487113355919450E+000
-0.493685081159266E+000
-0.500066481412197E+000
-0.506255096498360E+000
-0.512248540597082E+000
-0.518044503131209E+000
-0.523640749657461E+000
-0.529035122725406E+000
-0.534225542680788E+000
-0.539210008515822E+000
-0.543986598624404E+000
-0.548553471542477E+000
-0.552908866661890E+000
-0.557051104889379E+000
-0.560978589308638E+000
-0.564689805801793E+000
-0.568183323631404E+000
-0.571457795978068E+000
-0.574511960461950E+000
-0.577344639650682E+000
-0.579954741493361E+000
-0.582341259743176E+000
-0.584503274352387E+000
-0.586439951824264E+000
-0.588150545529934E+000
-0.589634396003792E+000
-0.590890931195923E+000
-0.591919666687418E+000
-0.592720205881413E+000
-0.593292240155477E+000
-0.593635548978788E+000
-0.593749999998612E+000
-0.593635549091413E+000
-0.593292240378048E+000
-0.592720206210317E+000
-0.591919667118355E+000
-0.590890931722738E+000
-0.589634396622714E+000
-0.588150546240167E+000
-0.586439952625775E+000
-0.584503275245947E+000
-0.582341260730650E+000
-0.579954742568124E+000
-0.577344640805078E+000
-0.574511961688707E+000
-0.571457797271523E+000
-0.568183324988955E+000
-0.564689807204130E+000
-0.560978590741179E+000
-0.557051106359078E+000
-0.552908868180998E+000
-0.548553473106929E+000
-0.543986600208240E+000
-0.539210010135023E+000
-0.534225544353188E+000
-0.529035124461283E+000
-0.523640751448359E+000
-0.518044504962437E+000
-0.512248542460421E+000
-0.506255098390712E+000
-0.500066483339337E+000
-0.493685083140023E+000
-0.487113357923887E+000
-0.480353841246411E+000
-0.473409139035192E+000
-0.466281928596069E+000
-0.458974957579125E+000
-0.451491042958842E+000
-0.443833069946184E+000
-0.436003990846001E+000
-0.428006823920875E+000
-0.419844652226690E+000
-0.411520622399966E+000
-0.403037943527687E+000
-0.394399885856113E+000
-0.385609779524315E+000
-0.376671013279507E+000
-0.367587033202339E+000
-0.358361341326792E+000
-0.348997494317874E+000
-0.339499102126115E+000
-0.329869826597607E+000
-0.320113379975956E+000
-0.310233523514450E+000
-0.300234066117346E+000
-0.290118862785799E+000
-0.279891813130861E+000
-0.269556859829988E+000
-0.259117987227215E+000
-0.248579219712298E+000
-0.237944620179626E+000
-0.227218288461581E+000
-0.216404359762773E+000
-0.205507003058379E+000
-0.194530419493857E+000
-0.183478840753636E+000
-0.172356527429540E+000
-0.161167767377836E+000
-0.149916874091733E+000
-0.138608185007620E+000
-0.127246059836436E+000
-0.115834878882767E+000
-0.104379041384678E+000
-0.928829637835424E-001
-0.813510780271841E-001
-0.697878298746828E-001
-0.581976771825562E-001
-0.465850881806074E-001
-0.349545397378737E-001
-0.233105156537597E-001
-0.116575049219880E-001
 0.000000000000000E+000
 0.000000000000000E+000
-0.120256365754564E-001
-0.240466370392486E-001
-0.360583670870401E-001
-0.480561959681631E-001
-0.600354982709588E-001
-0.719916557082572E-001
-0.839200589935740E-001
-0.958161094994028E-001
-0.107675221081637E+000
-0.119492821847427E+000
-0.131264355852868E+000
-0.142985284920093E+000
-0.154651090430366E+000
-0.166257275001776E+000
-0.177799364223382E+000
-0.189272908435758E+000
-0.200673484339802E+000
-0.211996696782731E+000
-0.223238180452224E+000
-0.234393601558795E+000
-0.245458659459310E+000
-0.256429088374075E+000
-0.267300659022519E+000
-0.278069180207572E+000
-0.288730500432720E+000
-0.299280509500035E+000
-0.309715140240738E+000
-0.320030369903219E+000
-0.330222221771050E+000
-0.340286766695872E+000
-0.350220124593129E+000
-0.360018465955557E+000
-0.369678013341658E+000
-0.379195042813601E+000
-0.388565885373149E+000
-0.397786928443646E+000
-0.406854617079232E+000
-0.415765455487545E+000
-0.424516008371226E+000
-0.433102902250062E+000
-0.441522826722766E+000
-0.449772535755800E+000
-0.457848848937739E+000
-0.465748652690486E+000
-0.473468901471115E+000
-0.481006618943739E+000
-0.488358899213407E+000
-0.495522907835174E+000
-0.502495882951593E+000
-0.509275136356735E+000
-0.515858054511520E+000
-0.522242099547142E+000
-0.528424810301481E+000
-0.534403803231543E+000
-0.540176773332009E+000
-0.545741495023114E+000
-0.551095822977295E+000
-0.556237692996571E+000
-0.561165122792556E+000
-0.565876212750116E+000
-0.570369146663040E+000
-0.574642192413573E+000
-0.578693702656550E+000
-0.582522115459885E+000
-0.586125954904963E+000
-0.589503831640922E+000
-0.592654443424015E+000
-0.595576575639680E+000
-0.598269101751065E+000
-0.600730983735011E+000
-0.602961272489656E+000
-0.604959108197445E+000
-0.606723720651820E+000
-0.608254429561884E+000
-0.609550644812861E+000
-0.610611866688248E+000
-0.611437686067165E+000
-0.612027784581340E+000
-0.612381934735844E+000
-0.612499999998335E+000
-0.612381934851868E+000
-0.612027784810656E+000
-0.611437686406032E+000
-0.610611867132207E+000
-0.609550645355683E+000
-0.608254430199892E+000
-0.606723721384183E+000
-0.604959109023954E+000
-0.602961273410782E+000
-0.600730984752245E+000
-0.598269102857972E+000
-0.595576576828656E+000
-0.592654444687431E+000
-0.589503832972687E+000
-0.586125956302481E+000
-0.582522116904533E+000
-0.578693704133650E+000
-0.574642193929958E+000
-0.570369148230853E+000
-0.565876214365248E+000
-0.561165124429606E+000
-0.556237694671599E+000
-0.551095824708045E+000
-0.545741496819443E+000
-0.540176775184527E+000
-0.534403805124073E+000
-0.528424812226453E+000
-0.522242101501768E+000
-0.515858056501950E+000
-0.509275138402718E+000
-0.502495885023963E+000
-0.495522909925652E+000
-0.488358901328193E+000
-0.481006621084752E+000
-0.473468903614652E+000
-0.465748654848726E+000
-0.457848851109360E+000
-0.449772537932102E+000
-0.441522828893241E+000
-0.433102904408619E+000
-0.424516010483612E+000
-0.415765457542719E+000
-0.406854619102462E+000
-0.397786930464308E+000
-0.388565887389501E+000
-0.379195044782364E+000
-0.369678015267570E+000
-0.360018467826332E+000
-0.350220126407337E+000
-0.340286768492846E+000
-0.330222223557183E+000
-0.320030371629775E+000
-0.309715141894934E+000
-0.299280511090513E+000
-0.288730501974009E+000
-0.278069181727251E+000
-0.267300660515602E+000
-0.256429089815170E+000
-0.245458660822558E+000
-0.234393602838745E+000
-0.223238181654629E+000
-0.211996697896517E+000
-0.200673485377268E+000
-0.189272909413427E+000
-0.177799365142152E+000
-0.166257275825884E+000
-0.154651091172885E+000
-0.142985285591069E+000
-0.131264356466691E+000
-0.119492822430377E+000
-0.107675221642786E+000
-0.958161100114624E-001
-0.839200594410109E-001
-0.719916560831095E-001
-0.600354985685646E-001
-0.480561962292270E-001
-0.360583673091114E-001
-0.240466372011146E-001
-0.120256366565701E-001
 0.000000000000000E+000
 0.000000000000000E+000
-0.123937683075297E-001
-0.247827585816012E-001
-0.371621946514754E-001
-0.495273040088246E-001
-0.618733196477265E-001
-0.741954819046205E-001
-0.864890403924606E-001
-0.987492557096456E-001
-0.110971401319965E+000
-0.123150765374572E+000
-0.135282652462019E+000
-0.147362385480415E+000
-0.159385307485762E+000
-0.171346783421313E+000
-0.183242201904793E+000
-0.195066977063018E+000
-0.206816550189162E+000
-0.218486391584743E+000
-0.230072002305441E+000
-0.241568915894963E+000
-0.252972700058419E+000
-0.264278958430395E+000
-0.275483332262036E+000
-0.286581502054216E+000
-0.297569189224084E+000
-0.308442157752796E+000
-0.319196215965722E+000
-0.329827217965324E+000
-0.340331065298892E+000
-0.350703708538320E+000
-0.360941148821140E+000
-0.371039439409048E+000
-0.380994687225081E+000
-0.390803054333757E+000
-0.400460759420955E+000
-0.409964079319583E+000
-0.419309350259747E+000
-0.428492969435325E+000
-0.437511396386937E+000
-0.446361154364586E+000
-0.455038831627683E+000
-0.463541082774002E+000
-0.471864630032921E+000
-0.480006264512723E+000
-0.487962847439273E+000
-0.495731311364589E+000
-0.503308661437858E+000
-0.510691976445601E+000
-0.517878409983737E+000
-0.524865191554205E+000
-0.531649627610843E+000
-0.538229102595924E+000
-0.544601080005881E+000
-0.550763103331877E+000
-0.556712797006556E+000
-0.562447867320821E+000
-0.567966103273801E+000
-0.573265377477319E+000
-0.578343646960709E+000
-0.583198953957755E+000
-0.587829426664190E+000
-0.592233279937766E+000
-0.596408816004462E+000
-0.600354425117978E+000
-0.604068586178523E+000
-0.607549867303776E+000
-0.610796926386079E+000
-0.613808511628678E+000
-0.616583462008768E+000
-0.619120707726846E+000
-0.621419270626925E+000
-0.623478264570627E+000
-0.625296895773708E+000
-0.626874463119977E+000
-0.628210358429800E+000
-0.629304066689079E+000
-0.630155166252917E+000
-0.630763329007203E+000
-0.631128320492900E+000
-0.631249999998057E+000
-0.631128320612323E+000
-0.630763329243265E+000
-0.630155166601746E+000
-0.629304067146060E+000
-0.628210358988629E+000
-0.626874463777071E+000
-0.625296896528199E+000
-0.623478265422134E+000
-0.621419271575617E+000
-0.619120708773840E+000
-0.616583463147821E+000
-0.613808512852235E+000
-0.610796927686155E+000
-0.607549868673851E+000
-0.604068587616008E+000
-0.600354426604937E+000
-0.596408817526122E+000
-0.592233281500838E+000
-0.587829428280708E+000
-0.583198955623566E+000
-0.578343648650972E+000
-0.573265379208175E+000
-0.567966105062902E+000
-0.562447869177603E+000
-0.556712798920694E+000
-0.550763105285710E+000
-0.544601081992486E+000
-0.538229104612823E+000
-0.531649629664563E+000
-0.524865193665414E+000
-0.517878412124038E+000
-0.510691978604893E+000
-0.503308663621195E+000
-0.495731313573434E+000
-0.487962849650178E+000