 TITLE     = "GRIB mesh" 
 VARIABLES = "X", "Y", "Z" 
 ZONE T="BLOCCO 1" 
 I= 49, J= 17, K=  2, ZONETYPE=Ordered 
 DATAPACKING=BLOCK 
0.0
0.01249999999997675
0.02499999999995093
0.03749999999992419
0.04999999999990492
0.06249999999988566
0.07499999999986366
0.08749999999982994
0.09999999999979349
0.1124999999997598
0.1249999999997261
0.1374999999996896
0.1499999999996532
0.1624999999996168
0.1749999999995804
0.187499999999544
0.1999999999995076
0.2124999999994712
0.2249999999994402
0.2374999999994092
0.2499999999993728
0.2624999999993364
0.2749999999993
0.2874999999992636
0.299999999999238
0.3124999999992594
0.3249999999992952
0.3374999999993238
0.3499999999993633
0.3624999999993882
0.3749999999994312
0.3874999999994526
0.3999999999994956
0.412499999999517
0.42499999999956
0.4374999999995849
0.4499999999996244
0.4624999999996638
0.4749999999996888
0.4874999999997319
0.499999999999746
0.5124999999997637
0.5249999999998068
0.5374999999998281
0.5499999999998711
0.5624999999998925
0.5749999999999356
0.5874999999999642
0.6
0.0
0.01249999999998046
0.02499999999995806
0.03749999999993571
0.049999999999919
0.06249999999990366
0.0749999999998844
0.08749999999985549
0.09999999999982243
0.1124999999997917
0.1249999999997628
0.1374999999997302
0.1499999999996986
0.162499999999667
0.1749999999996344
0.187499999999603
0.1999999999995702
0.2124999999995388
0.2249999999995111
0.2374999999994848
0.2499999999994523
0.2624999999994206
0.2749999999993883
0.2874999999993564
0.2999999999993337
0.3124999999993522
0.3249999999993834
0.3374999999994082
0.3499999999994427
0.362499999999464
0.3749999999995027
0.3874999999995212
0.3999999999995593
0.4124999999995769
0.424999999999615
0.4374999999996362
0.4499999999996709
0.4624999999997056
0.4749999999997268
0.4874999999997648
0.4999999999997758
0.5124999999997873
0.5249999999998258
0.5374999999998434
0.5499999999998817
0.5624999999999019
0.574999999999941
0.5874999999999674
0.6
0.0
0.01249999999998417
0.0249999999999652
0.03749999999994721
0.04999999999993307
0.06249999999992165
0.0749999999999051
0.08749999999988098
0.09999999999985137
0.1124999999998237
0.1249999999997996
0.1374999999997708
0.149999999999744
0.1624999999997171
0.1749999999996884
0.187499999999662
0.1999999999996328
0.2124999999996064
0.224999999999582
0.2374999999995603
0.2499999999995317
0.2624999999995047
0.2749999999994766
0.2874999999994492
0.2999999999994296
0.312499999999445
0.3249999999994718
0.3374999999994924
0.3499999999995225
0.3624999999995397
0.3749999999995742
0.3874999999995896
0.3999999999996229
0.412499999999637
0.4249999999996701
0.4374999999996874
0.4499999999997175
0.4624999999997475
0.4749999999997647
0.4874999999997979
0.4999999999998057
0.5124999999998111
0.5249999999998445
0.5374999999998588
0.5499999999998927
0.5624999999999114
0.5749999999999463
0.5874999999999706
0.6
0.0
0.01249999999998789
0.02499999999997234
0.03749999999995875
0.04999999999994716
0.06249999999993963
0.0749999999999258
0.08749999999990654
0.09999999999988028
0.1124999999998556
0.1249999999998364
0.1374999999998115
0.1499999999997893
0.1624999999997672
0.1749999999997424
0.187499999999721
0.1999999999996954
0.2124999999996741
0.2249999999996529
0.2374999999996359
0.2499999999996111
0.262499999999589
0.2749999999995648
0.287499999999542
0.2999999999995253
0.3124999999995378
0.3249999999995601
0.3374999999995767
0.349999999999602
0.3624999999996155
0.3749999999996457
0.3874999999996582
0.3999999999996866
0.4124999999996969
0.4249999999997251
0.4374999999997387
0.449999999999764
0.4624999999997893
0.4749999999998027
0.487499999999831
0.4999999999998356
0.5124999999998352
0.5249999999998635
0.5374999999998737
0.5499999999999036
0.5624999999999207
0.5749999999999519
0.5874999999999736
0.6
0.0
0.0124999999999916
0.02499999999997946
0.03749999999997026
0.04999999999996123
0.06249999999995762
0.07499999999994653
0.08749999999993208
0.09999999999990924
0.1124999999998876
0.1249999999998731
0.1374999999998521
0.1499999999998347
0.1624999999998174
0.1749999999997964
0.18749999999978
0.1999999999997581
0.2124999999997416
0.2249999999997239
0.2374999999997114
0.2499999999996904
0.2624999999996732
0.2749999999996531
0.2874999999996347
0.2999999999996211
0.3124999999996306
0.3249999999996486
0.3374999999996609
0.3499999999996815
0.3624999999996911
0.3749999999997171
0.3874999999997268
0.3999999999997501
0.4124999999997571
0.4249999999997802
0.4374999999997898
0.4499999999998104
0.462499999999831
0.4749999999998407
0.4874999999998639
0.4999999999998654
0.512499999999859
0.5249999999998821
0.5374999999998892
0.5499999999999142
0.5624999999999303
0.5749999999999572
0.5874999999999766
0.6
0.0
0.0124999999999953
0.0249999999999866
0.03749999999998177
0.04999999999997531
0.06249999999997559
0.07499999999996725
0.08749999999995763
0.09999999999993818
0.1124999999999196
0.1249999999999099
0.1374999999998927
0.1499999999998801
0.1624999999998675
0.1749999999998504
0.187499999999839
0.1999999999998208
0.2124999999998093
0.2249999999997947
0.2374999999997869
0.2499999999997698
0.2624999999997573
0.2749999999997413
0.2874999999997275
0.2999999999997168
0.3124999999997235
0.3249999999997368
0.3374999999997452
0.3499999999997611
0.362499999999767
0.3749999999997886
0.3874999999997952
0.3999999999998136
0.412499999999817
0.4249999999998352
0.4374999999998412
0.449999999999857
0.4624999999998727
0.4749999999998786
0.487499999999897
0.4999999999998954
0.5124999999998827
0.5249999999999011
0.5374999999999044
0.549999999999925
0.5624999999999396
0.5749999999999624
0.5874999999999798
0.6
0.0
0.01249999999999903
0.02499999999999374
0.03749999999999329
0.04999999999998938
0.06249999999999362
0.07499999999998795
0.08749999999998315
0.09999999999996714
0.1124999999999515
0.1249999999999467
0.1374999999999334
0.1499999999999256
0.1624999999999177
0.1749999999999044
0.187499999999898
0.1999999999998834
0.2124999999998769
0.2249999999998657
0.2374999999998625
0.2499999999998493
0.2624999999998415
0.2749999999998295
0.2874999999998203
0.2999999999998126
0.3124999999998163
0.3249999999998252
0.3374999999998294
0.3499999999998407
0.3624999999998427
0.3749999999998602
0.3874999999998639
0.3999999999998773
0.4124999999998771
0.4249999999998905
0.4374999999998923
0.4499999999999036
0.4624999999999145
0.4749999999999167
0.48749999999993
0.4999999999999253
0.5124999999999064
0.52499999999992
0.5374999999999198
0.5499999999999357
0.5624999999999492
0.5749999999999678
0.5874999999999829
0.6
0.0
0.01250000000000273
0.02500000000000087
0.03750000000000479
0.05000000000000346
0.0625000000000116
0.07500000000000868
0.0875000000000087
0.09999999999999606
0.1124999999999835
0.1249999999999835
0.137499999999974
0.149999999999971
0.1624999999999678
0.1749999999999585
0.187499999999957
0.199999999999946
0.2124999999999445
0.2249999999999366
0.237499999999938
0.2499999999999287
0.2624999999999257
0.2749999999999178
0.287499999999913
0.2999999999999082
0.3124999999999092
0.3249999999999135
0.3374999999999139
0.3499999999999202
0.3624999999999184
0.3749999999999316
0.3874999999999325
0.3999999999999408
0.4124999999999371
0.4249999999999454
0.4374999999999436
0.4499999999999499
0.4624999999999563
0.4749999999999547
0.487499999999963
0.4999999999999551
0.5124999999999305
0.5249999999999386
0.5374999999999349
0.5499999999999465
0.5624999999999585
0.5749999999999732
0.587499999999986
0.6
0.0
0.01250000000000645
0.02500000000000801
0.03750000000001633
0.05000000000001753
0.06250000000002959
0.07500000000002939
0.08750000000003419
0.100000000000025
0.1125000000000154
0.1250000000000202
0.1375000000000146
0.1500000000000163
0.162500000000018
0.1750000000000125
0.187500000000016
0.2000000000000086
0.2125000000000121
0.2250000000000075
0.2375000000000136
0.250000000000008
0.2625000000000098
0.275000000000006
0.2875000000000059
0.300000000000004
0.312500000000002
0.3250000000000018
0.337499999999998
0.3499999999999998
0.3624999999999942
0.3750000000000031
0.387500000000001
0.4000000000000045
0.4124999999999971
0.4250000000000005
0.4374999999999949
0.4499999999999964
0.4624999999999981
0.4749999999999926
0.487499999999996
0.4999999999999849
0.5124999999999542
0.5249999999999577
0.53749999999995
0.549999999999957
0.562499999999968
0.5749999999999785
0.5874999999999894
0.6
0.0
0.01250000000001016
0.02500000000001514
0.03750000000002783
0.0500000000000316
0.06250000000004757
0.07500000000005012
0.08750000000005977
0.100000000000054
0.1125000000000474
0.125000000000057
0.1375000000000553
0.1500000000000618
0.1625000000000681
0.1750000000000664
0.187500000000075
0.2000000000000713
0.2125000000000798
0.2250000000000784
0.2375000000000892
0.2500000000000875
0.2625000000000939
0.2750000000000944
0.2875000000000987
0.3000000000000997
0.3125000000000947
0.3250000000000902
0.3375000000000824
0.3500000000000792
0.3625000000000699
0.3750000000000744
0.3875000000000695
0.4000000000000681
0.4125000000000572
0.4250000000000556
0.4375000000000462
0.450000000000043
0.46250000000004
0.4750000000000306
0.487500000000029
0.5000000000000149
0.512499999999978
0.5249999999999766
0.5374999999999653
0.5499999999999682
0.5624999999999775
0.5749999999999839
0.5874999999999925
0.6
0.0
0.01250000000001388
0.02500000000002228
0.03750000000003935
0.0500000000000457
0.06250000000006559
0.07500000000007084
0.0875000000000853
0.1000000000000829
0.1125000000000793
0.1250000000000938
0.1375000000000959
0.150000000000107
0.1625000000001183
0.1750000000001204
0.1875000000001339
0.2000000000001339
0.2125000000001473
0.2250000000001493
0.2375000000001647
0.2500000000001669
0.2625000000001782
0.2750000000001825
0.2875000000001914
0.3000000000001955
0.3125000000001877
0.3250000000001785
0.3375000000001667
0.3500000000001589
0.3625000000001456
0.3750000000001459
0.3875000000001381
0.4000000000001317
0.4125000000001171
0.4250000000001107
0.4375000000000974
0.4500000000000896
0.4625000000000817
0.4750000000000686
0.4875000000000621
0.5000000000000446
0.5125000000000017
0.5249999999999955
0.5374999999999807
0.5499999999999787
0.5624999999999867
0.5749999999999894
0.5874999999999956
0.6
0.0
0.01250000000001759
0.02500000000002941
0.03750000000005087
0.05000000000005977
0.06250000000008357
0.07500000000009154
0.0875000000001108
0.1000000000001119
0.1125000000001113
0.1250000000001305
0.1375000000001365
0.1500000000001525
0.1625000000001685
0.1750000000001745
0.187500000000193
0.2000000000001965
0.212500000000215
0.2250000000002202
0.2375000000002403
0.2500000000002463
0.2625000000002624
0.2750000000002709
0.2875000000002842
0.3000000000002912
0.3125000000002805
0.3250000000002669
0.3375000000002509
0.3500000000002383
0.3625000000002213
0.3750000000002174
0.3875000000002067
0.4000000000001953
0.4125000000001772
0.4250000000001658
0.4375000000001485
0.4500000000001361
0.4625000000001234
0.4750000000001064
0.487500000000095
0.5000000000000746
0.5125000000000255
0.5250000000000143
0.5374999999999961
0.5499999999999894
0.5624999999999962
0.574999999999995
0.5874999999999987
0.6
0.0
0.0125000000000213
0.02500000000003654
0.03750000000006239
0.05000000000007384
0.06250000000010156
0.07500000000011227
0.08750000000013637
0.1000000000001408
0.1125000000001432
0.1250000000001673
0.1375000000001771
0.1500000000001979
0.1625000000002187
0.1750000000002285
0.1875000000002519
0.2000000000002591
0.2125000000002826
0.2250000000002911
0.2375000000003158
0.2500000000003257
0.2625000000003465
0.2750000000003591
0.287500000000377
0.3000000000003869
0.3125000000003733
0.3250000000003551
0.3375000000003353
0.3500000000003179
0.362500000000297
0.3750000000002889
0.3875000000002751
0.4000000000002589
0.4125000000002371
0.4250000000002209
0.4375000000001998
0.4500000000001826
0.4625000000001654
0.4750000000001445
0.4875000000001281
0.5000000000001046
0.5125000000000495
0.5250000000000332
0.5375000000000113
0.5500000000000002
0.5625000000000058
0.5750000000000002
0.5875000000000018
0.6
0.0
0.01250000000002501
0.02500000000004367
0.0375000000000739
0.05000000000008792
0.06250000000011957
0.075000000000133
0.0875000000001619
0.1000000000001697
0.1125000000001752
0.1250000000002041
0.1375000000002178
0.1500000000002433
0.1625000000002688
0.1750000000002825
0.187500000000311
0.2000000000003217
0.2125000000003502
0.225000000000362
0.2375000000003914
0.2500000000004052
0.2625000000004307
0.2750000000004473
0.2875000000004699
0.3000000000004827
0.3125000000004662
0.3250000000004435
0.3375000000004195
0.3500000000003974
0.3625000000003729
0.3750000000003604
0.3875000000003438
0.4000000000003225
0.4125000000002972
0.4250000000002759
0.4375000000002512
0.4500000000002292
0.4625000000002072
0.4750000000001824
0.4875000000001612
0.5000000000001344
0.5125000000000732
0.5250000000000519
0.5375000000000264
0.5500000000000109
0.5625000000000151
0.5750000000000056
0.5875000000000051
0.6
0.0
0.01250000000002872
0.02500000000005081
0.03750000000008543
0.050000000000102
0.06250000000013756
0.07500000000015371
0.08750000000018743
0.1000000000001987
0.1125000000002071
0.1250000000002409
0.1375000000002584
0.1500000000002887
0.1625000000003189
0.1750000000003365
0.18750000000037
0.2000000000003844
0.2125000000004178
0.225000000000433
0.237500000000467
0.2500000000004846
0.2625000000005148
0.2750000000005356
0.2875000000005627
0.3000000000005785
0.3125000000005589
0.3250000000005318
0.3375000000005038
0.3500000000004772
0.3625000000004486
0.3750000000004318
0.3875000000004124
0.4000000000003861
0.4125000000003572
0.4250000000003309
0.4375000000003023
0.4500000000002755
0.4625000000002489
0.4750000000002205
0.4875000000001943
0.5000000000001643
0.512500000000097
0.525000000000071
0.5375000000000417
0.5500000000000219
0.5625000000000246
0.575000000000011
0.5875000000000082
0.6
0.0
0.01250000000003244
0.02500000000005795
0.03750000000009694
0.05000000000011608
0.06250000000015554
0.07500000000017441
0.08750000000021296
0.1000000000002276
0.1125000000002391
0.1250000000002777
0.137500000000299
0.1500000000003341
0.1625000000003691
0.1750000000003905
0.1875000000004289
0.200000000000447
0.2125000000004855
0.2250000000005038
0.2375000000005425
0.2500000000005639
0.262500000000599
0.2750000000006237
0.2875000000006555
0.3000000000006742
0.3125000000006518
0.3250000000006202
0.3375000000005881
0.3500000000005567
0.3625000000005243
0.3750000000005033
0.3875000000004808
0.4000000000004496
0.4125000000004172
0.425000000000386
0.4375000000003535
0.4500000000003222
0.4625000000002906
0.4750000000002584
0.4875000000002273
0.5000000000001941
0.5125000000001207
0.5250000000000896
0.537500000000057
0.5500000000000326
0.5625000000000341
0.5750000000000163
0.5875000000000113
0.6
0.0
0.01250000000003615
0.02500000000006508
0.03750000000010845
0.05000000000013016
0.06250000000017353
0.07500000000019513
0.0875000000002385
0.1000000000002566
0.112500000000271
0.1250000000003144
0.1375000000003397
0.1500000000003795
0.1625000000004193
0.1750000000004445
0.1875000000004879
0.2000000000005096
0.2125000000005531
0.2250000000005747
0.2375000000006181
0.2500000000006434
0.2625000000006832
0.2750000000007121
0.2875000000007482
0.3000000000007699
0.3125000000007446
0.3250000000007084
0.3375000000006723
0.3500000000006362
0.3625000000006001
0.3750000000005748
0.3875000000005494
0.4000000000005133
0.4125000000004772
0.425000000000441
0.4375000000004048
0.4500000000003687
0.4625000000003325
0.4750000000002964
0.4875000000002602
0.500000000000224
0.5125000000001446
0.5250000000001085
0.5375000000000723
0.5500000000000433
0.5625000000000434
0.5750000000000217
0.5875000000000145
0.6
0.0
0.01249999999997675
0.02499999999995093
0.03749999999992419
0.04999999999990492
0.06249999999988566
0.07499999999986366
0.08749999999982994
0.09999999999979349
0.1124999999997598
0.1249999999997261
0.1374999999996896
0.1499999999996532
0.1624999999996168
0.1749999999995804
0.187499999999544
0.1999999999995076
0.2124999999994712
0.2249999999994402
0.2374999999994092
0.2499999999993728
0.2624999999993364
0.2749999999993
0.2874999999992636
0.299999999999238
0.3124999999992594
0.3249999999992952
0.3374999999993238
0.3499999999993633
0.3624999999993882
0.3749999999994312
0.3874999999994526
0.3999999999994956
0.412499999999517
0.42499999999956
0.4374999999995849
0.4499999999996244
0.4624999999996638
0.4749999999996888
0.4874999999997319
0.499999999999746
0.5124999999997637
0.5249999999998068
0.5374999999998281
0.5499999999998711
0.5624999999998925
0.5749999999999356
0.5874999999999642
0.6
0.0
0.01249999999998046
0.02499999999995806
0.03749999999993571
0.049999999999919
0.06249999999990366
0.0749999999998844
0.08749999999985549
0.09999999999982243
0.1124999999997917
0.1249999999997628
0.1374999999997302
0.1499999999996986
0.162499999999667
0.1749999999996344
0.187499999999603
0.1999999999995702
0.2124999999995388
0.2249999999995111
0.2374999999994848
0.2499999999994523
0.2624999999994206
0.2749999999993883
0.2874999999993564
0.2999999999993337
0.3124999999993522
0.3249999999993834
0.3374999999994082
0.3499999999994427
0.362499999999464
0.3749999999995027
0.3874999999995212
0.3999999999995593
0.4124999999995769
0.424999999999615
0.4374999999996362
0.4499999999996709
0.4624999999997056
0.4749999999997268
0.4874999999997648
0.4999999999997758
0.5124999999997873
0.5249999999998258
0.5374999999998434
0.5499999999998817
0.5624999999999019
0.574999999999941
0.5874999999999674
0.6
0.0
0.01249999999998417
0.0249999999999652
0.03749999999994721
0.04999999999993307
0.06249999999992165
0.0749999999999051
0.08749999999988098
0.09999999999985137
0.1124999999998237
0.1249999999997996
0.1374999999997708
0.149999999999744
0.1624999999997171
0.1749999999996884
0.187499999999662
0.1999999999996328
0.2124999999996064
0.224999999999582
0.2374999999995603
0.2499999999995317
0.2624999999995047
0.2749999999994766
0.2874999999994492
0.2999999999994296
0.312499999999445
0.3249999999994718
0.3374999999994924
0.3499999999995225
0.3624999999995397
0.3749999999995742
0.3874999999995896
0.3999999999996229
0.412499999999637
0.4249999999996701
0.4374999999996874
0.4499999999997175
0.4624999999997475
0.4749999999997647
0.4874999999997979
0.4999999999998057
0.5124999999998111
0.5249999999998445
0.5374999999998588
0.5499999999998927
0.5624999999999114
0.5749999999999463
0.5874999999999706
0.6
0.0
0.01249999999998789
0.02499999999997234
0.03749999999995875
0.04999999999994716
0.06249999999993963
0.0749999999999258
0.08749999999990654
0.09999999999988028
0.1124999999998556
0.1249999999998364
0.1374999999998115
0.1499999999997893
0.1624999999997672
0.1749999999997424
0.187499999999721
0.1999999999996954
0.2124999999996741
0.2249999999996529
0.2374999999996359
0.2499999999996111
0.262499999999589
0.2749999999995648
0.287499999999542
0.2999999999995253
0.3124999999995378
0.3249999999995601
0.3374999999995767
0.349999999999602
0.3624999999996155
0.3749999999996457
0.3874999999996582
0.3999999999996866
0.4124999999996969
0.4249999999997251
0.4374999999997387
0.449999999999764
0.4624999999997893
0.4749999999998027
0.487499999999831
0.4999999999998356
0.5124999999998352
0.5249999999998635
0.5374999999998737
0.5499999999999036
0.5624999999999207
0.5749999999999519
0.5874999999999736
0.6
0.0
0.0124999999999916
0.02499999999997946
0.03749999999997026
0.04999999999996123
0.06249999999995762
0.07499999999994653
0.08749999999993208
0.09999999999990924
0.1124999999998876
0.1249999999998731
0.1374999999998521
0.1499999999998347
0.1624999999998174
0.1749999999997964
0.18749999999978
0.1999999999997581
0.2124999999997416
0.2249999999997239
0.2374999999997114
0.2499999999996904
0.2624999999996732
0.2749999999996531
0.2874999999996347
0.2999999999996211
0.3124999999996306
0.3249999999996486
0.3374999999996609
0.3499999999996815
0.3624999999996911
0.3749999999997171
0.3874999999997268
0.3999999999997501
0.4124999999997571
0.4249999999997802
0.4374999999997898
0.4499999999998104
0.462499999999831
0.4749999999998407
0.4874999999998639
0.4999999999998654
0.512499999999859
0.5249999999998821
0.5374999999998892
0.5499999999999142
0.5624999999999303
0.5749999999999572
0.5874999999999766
0.6
0.0
0.0124999999999953
0.0249999999999866
0.03749999999998177
0.04999999999997531
0.06249999999997559
0.07499999999996725
0.08749999999995763
0.09999999999993818
0.1124999999999196
0.1249999999999099
0.1374999999998927
0.1499999999998801
0.1624999999998675
0.1749999999998504
0.187499999999839
0.1999999999998208
0.2124999999998093
0.2249999999997947
0.2374999999997869
0.2499999999997698
0.2624999999997573
0.2749999999997413
0.2874999999997275
0.2999999999997168
0.3124999999997235
0.3249999999997368
0.3374999999997452
0.3499999999997611
0.362499999999767
0.3749999999997886
0.3874999999997952
0.3999999999998136
0.412499999999817
0.4249999999998352
0.4374999999998412
0.449999999999857
0.4624999999998727
0.4749999999998786
0.487499999999897
0.4999999999998954
0.5124999999998827
0.5249999999999011
0.5374999999999044
0.549999999999925
0.5624999999999396
0.5749999999999624
0.5874999999999798
0.6
0.0
0.01249999999999903
0.02499999999999374
0.03749999999999329
0.04999999999998938
0.06249999999999362
0.07499999999998795
0.08749999999998315
0.09999999999996714
0.1124999999999515
0.1249999999999467
0.1374999999999334
0.1499999999999256
0.1624999999999177
0.1749999999999044
0.187499999999898
0.1999999999998834
0.2124999999998769
0.2249999999998657
0.2374999999998625
0.2499999999998493
0.2624999999998415
0.2749999999998295
0.2874999999998203
0.2999999999998126
0.3124999999998163
0.3249999999998252
0.3374999999998294
0.3499999999998407
0.3624999999998427
0.3749999999998602
0.3874999999998639
0.3999999999998773
0.4124999999998771
0.4249999999998905
0.4374999999998923
0.4499999999999036
0.4624999999999145
0.4749999999999167
0.48749999999993
0.4999999999999253
0.5124999999999064
0.52499999999992
0.5374999999999198
0.5499999999999357
0.5624999999999492
0.5749999999999678
0.5874999999999829
0.6
0.0
0.01250000000000273
0.02500000000000087
0.03750000000000479
0.05000000000000346
0.0625000000000116
0.07500000000000868
0.0875000000000087
0.09999999999999606
0.1124999999999835
0.1249999999999835
0.137499999999974
0.149999999999971
0.1624999999999678
0.1749999999999585
0.187499999999957
0.199999999999946
0.2124999999999445
0.2249999999999366
0.237499999999938
0.2499999999999287
0.2624999999999257
0.2749999999999178
0.287499999999913
0.2999999999999082
0.3124999999999092
0.3249999999999135
0.3374999999999139
0.3499999999999202
0.3624999999999184
0.3749999999999316
0.3874999999999325
0.3999999999999408
0.4124999999999371
0.4249999999999454
0.4374999999999436
0.4499999999999499
0.4624999999999563
0.4749999999999547
0.487499999999963
0.4999999999999551
0.5124999999999305
0.5249999999999386
0.5374999999999349
0.5499999999999465
0.5624999999999585
0.5749999999999732
0.587499999999986
0.6
0.0
0.01250000000000645
0.02500000000000801
0.03750000000001633
0.05000000000001753
0.06250000000002959
0.07500000000002939
0.08750000000003419
0.100000000000025
0.1125000000000154
0.1250000000000202
0.1375000000000146
0.1500000000000163
0.162500000000018
0.1750000000000125
0.187500000000016
0.2000000000000086
0.2125000000000121
0.2250000000000075
0.2375000000000136
0.250000000000008
0.2625000000000098
0.275000000000006
0.2875000000000059
0.300000000000004
0.312500000000002
0.3250000000000018
0.337499999999998
0.3499999999999998
0.3624999999999942
0.3750000000000031
0.387500000000001
0.4000000000000045
0.4124999999999971
0.4250000000000005
0.4374999999999949
0.4499999999999964
0.4624999999999981
0.4749999999999926
0.487499999999996
0.4999999999999849
0.5124999999999542
0.5249999999999577
0.53749999999995
0.549999999999957
0.562499999999968
0.5749999999999785
0.5874999999999894
0.6
0.0
0.01250000000001016
0.02500000000001514
0.03750000000002783
0.0500000000000316
0.06250000000004757
0.07500000000005012
0.08750000000005977
0.100000000000054
0.1125000000000474
0.125000000000057
0.1375000000000553
0.1500000000000618
0.1625000000000681
0.1750000000000664
0.187500000000075
0.2000000000000713
0.2125000000000798
0.2250000000000784
0.2375000000000892
0.2500000000000875
0.2625000000000939
0.2750000000000944
0.2875000000000987
0.3000000000000997
0.3125000000000947
0.3250000000000902
0.3375000000000824
0.3500000000000792
0.3625000000000699
0.3750000000000744
0.3875000000000695
0.4000000000000681
0.4125000000000572
0.4250000000000556
0.4375000000000462
0.450000000000043
0.46250000000004
0.4750000000000306
0.487500000000029
0.5000000000000149
0.512499999999978
0.5249999999999766
0.5374999999999653
0.5499999999999682
0.5624999999999775
0.5749999999999839
0.5874999999999925
0.6
0.0
0.01250000000001388
0.02500000000002228
0.03750000000003935
0.0500000000000457
0.06250000000006559
0.07500000000007084
0.0875000000000853
0.1000000000000829
0.1125000000000793
0.1250000000000938
0.1375000000000959
0.150000000000107
0.1625000000001183
0.1750000000001204
0.1875000000001339
0.2000000000001339
0.2125000000001473
0.2250000000001493
0.2375000000001647
0.2500000000001669
0.2625000000001782
0.2750000000001825
0.2875000000001914
0.3000000000001955
0.3125000000001877
0.3250000000001785
0.3375000000001667
0.3500000000001589
0.3625000000001456
0.3750000000001459
0.3875000000001381
0.4000000000001317
0.4125000000001171
0.4250000000001107
0.4375000000000974
0.4500000000000896
0.4625000000000817
0.4750000000000686
0.4875000000000621
0.5000000000000446
0.5125000000000017
0.5249999999999955
0.5374999999999807
0.5499999999999787
0.5624999999999867
0.5749999999999894
0.5874999999999956
0.6
0.0
0.01250000000001759
0.02500000000002941
0.03750000000005087
0.05000000000005977
0.06250000000008357
0.07500000000009154
0.0875000000001108
0.1000000000001119
0.1125000000001113
0.1250000000001305
0.1375000000001365
0.1500000000001525
0.1625000000001685
0.1750000000001745
0.187500000000193
0.2000000000001965
0.212500000000215
0.2250000000002202
0.2375000000002403
0.2500000000002463
0.2625000000002624
0.2750000000002709
0.2875000000002842
0.3000000000002912
0.3125000000002805
0.3250000000002669
0.3375000000002509
0.3500000000002383
0.3625000000002213
0.3750000000002174
0.3875000000002067
0.4000000000001953
0.4125000000001772
0.4250000000001658
0.4375000000001485
0.4500000000001361
0.4625000000001234
0.4750000000001064
0.487500000000095
0.5000000000000746
0.5125000000000255
0.5250000000000143
0.5374999999999961
0.5499999999999894
0.5624999999999962
0.574999999999995
0.5874999999999987
0.6
0.0
0.0125000000000213
0.02500000000003654
0.03750000000006239
0.05000000000007384
0.06250000000010156
0.07500000000011227
0.08750000000013637
0.1000000000001408
0.1125000000001432
0.1250000000001673
0.1375000000001771
0.1500000000001979
0.1625000000002187
0.1750000000002285
0.1875000000002519
0.2000000000002591
0.2125000000002826
0.2250000000002911
0.2375000000003158
0.2500000000003257
0.2625000000003465
0.2750000000003591
0.287500000000377
0.3000000000003869
0.3125000000003733
0.3250000000003551
0.3375000000003353
0.3500000000003179
0.362500000000297
0.3750000000002889
0.3875000000002751
0.4000000000002589
0.4125000000002371
0.4250000000002209
0.4375000000001998
0.4500000000001826
0.4625000000001654
0.4750000000001445
0.4875000000001281
0.5000000000001046
0.5125000000000495
0.5250000000000332
0.5375000000000113
0.5500000000000002
0.5625000000000058
0.5750000000000002
0.5875000000000018
0.6
0.0
0.01250000000002501
0.02500000000004367
0.0375000000000739
0.05000000000008792
0.06250000000011957
0.075000000000133
0.0875000000001619
0.1000000000001697
0.1125000000001752
0.1250000000002041
0.1375000000002178
0.1500000000002433
0.1625000000002688
0.1750000000002825
0.187500000000311
0.2000000000003217
0.2125000000003502
0.225000000000362
0.2375000000003914
0.2500000000004052
0.2625000000004307
0.2750000000004473
0.2875000000004699
0.3000000000004827
0.3125000000004662
0.3250000000004435
0.3375000000004195
0.3500000000003974
0.3625000000003729
0.3750000000003604
0.3875000000003438
0.4000000000003225
0.4125000000002972
0.4250000000002759
0.4375000000002512
0.4500000000002292
0.4625000000002072
0.4750000000001824
0.4875000000001612
0.5000000000001344
0.5125000000000732
0.5250000000000519
0.5375000000000264
0.5500000000000109
0.5625000000000151
0.5750000000000056
0.5875000000000051
0.6
0.0
0.01250000000002872
0.02500000000005081
0.03750000000008543
0.050000000000102
0.06250000000013756
0.07500000000015371
0.08750000000018743
0.1000000000001987
0.1125000000002071
0.1250000000002409
0.1375000000002584
0.1500000000002887
0.1625000000003189
0.1750000000003365
0.18750000000037
0.2000000000003844
0.2125000000004178
0.225000000000433
0.237500000000467
0.2500000000004846
0.2625000000005148
0.2750000000005356
0.2875000000005627
0.3000000000005785
0.3125000000005589
0.3250000000005318
0.3375000000005038
0.3500000000004772
0.3625000000004486
0.3750000000004318
0.3875000000004124
0.4000000000003861
0.4125000000003572
0.4250000000003309
0.4375000000003023
0.4500000000002755
0.4625000000002489
0.4750000000002205
0.4875000000001943
0.5000000000001643
0.512500000000097
0.525000000000071
0.5375000000000417
0.5500000000000219
0.5625000000000246
0.575000000000011
0.5875000000000082
0.6
0.0
0.01250000000003244
0.02500000000005795
0.03750000000009694
0.05000000000011608
0.06250000000015554
0.07500000000017441
0.08750000000021296
0.1000000000002276
0.1125000000002391
0.1250000000002777
0.137500000000299
0.1500000000003341
0.1625000000003691
0.1750000000003905
0.1875000000004289
0.200000000000447
0.2125000000004855
0.2250000000005038
0.2375000000005425
0.2500000000005639
0.262500000000599
0.2750000000006237
0.2875000000006555
0.3000000000006742
0.3125000000006518
0.3250000000006202
0.3375000000005881
0.3500000000005567
0.3625000000005243
0.3750000000005033
0.3875000000004808
0.4000000000004496
0.4125000000004172
0.425000000000386
0.4375000000003535
0.4500000000003222
0.4625000000002906
0.4750000000002584
0.4875000000002273
0.5000000000001941
0.5125000000001207
0.5250000000000896
0.537500000000057
0.5500000000000326
0.5625000000000341
0.5750000000000163
0.5875000000000113
0.6
0.0
0.01250000000003615
0.02500000000006508
0.03750000000010845
0.05000000000013016
0.06250000000017353