 VARIABLES ="x" "y" "z"  "rho1" "u" "v" "w" "p"
 ZONE  T = B1-IG, I=801, J=2, K=2, DATAPACKING=BLOCK, VARLOCATION=([1-3]=NODAL,[4-8]=CELLCENTERED), SOLUTIONTIME=0.695277001781309E-309
 0.000000000000000E+000
 0.124999999999763E-002
 0.249999999999525E-002
 0.374999999999288E-002
 0.499999999999050E-002
 0.624999999998813E-002
 0.749999999998576E-002
 0.874999999998340E-002
 0.999999999998105E-002
 0.112499999999787E-001
 0.124999999999763E-001
 0.137499999999740E-001
 0.149999999999717E-001
 0.162499999999693E-001
 0.174999999999670E-001
 0.187499999999646E-001
 0.199999999999623E-001
 0.212499999999599E-001
 0.224999999999576E-001
 0.237499999999552E-001
 0.249999999999527E-001
 0.262499999999503E-001
 0.274999999999478E-001
 0.287499999999454E-001
 0.299999999999429E-001
 0.312499999999405E-001
 0.324999999999378E-001
 0.337499999999351E-001
 0.349999999999324E-001
 0.362499999999298E-001
 0.374999999999271E-001
 0.387499999999244E-001
 0.399999999999216E-001
 0.412499999999189E-001
 0.424999999999161E-001
 0.437499999999133E-001
 0.449999999999105E-001
 0.462499999999077E-001
 0.474999999999050E-001
 0.487499999999022E-001
 0.499999999998994E-001
 0.512499999998966E-001
 0.524999999998938E-001
 0.537499999998910E-001
 0.549999999998883E-001
 0.562499999998858E-001
 0.574999999998832E-001
 0.587499999998806E-001
 0.599999999998780E-001
 0.612499999998755E-001
 0.624999999998729E-001
 0.637499999998708E-001
 0.649999999998687E-001
 0.662499999998665E-001
 0.674999999998644E-001
 0.687499999998623E-001
 0.699999999998601E-001
 0.712499999998582E-001
 0.724999999998562E-001
 0.737499999998543E-001
 0.749999999998524E-001
 0.762499999998505E-001
 0.774999999998486E-001
 0.787499999998467E-001
 0.799999999998448E-001
 0.812499999998428E-001
 0.824999999998409E-001
 0.837499999998390E-001
 0.849999999998371E-001
 0.862499999998352E-001
 0.874999999998333E-001
 0.887499999998314E-001
 0.899999999998294E-001
 0.912499999998275E-001
 0.924999999998256E-001
 0.937499999998237E-001
 0.949999999998218E-001
 0.962499999998199E-001
 0.974999999998180E-001
 0.987499999998160E-001
 0.999999999998141E-001
 0.101249999999812E+000
 0.102499999999810E+000
 0.103749999999808E+000
 0.104999999999806E+000
 0.106249999999805E+000
 0.107499999999803E+000
 0.108749999999801E+000
 0.109999999999799E+000
 0.111249999999797E+000
 0.112499999999795E+000
 0.113749999999793E+000
 0.114999999999791E+000
 0.116249999999789E+000
 0.117499999999787E+000
 0.118749999999785E+000
 0.119999999999783E+000
 0.121249999999780E+000
 0.122499999999778E+000
 0.123749999999775E+000
 0.124999999999773E+000
 0.126249999999770E+000
 0.127499999999767E+000
 0.128749999999763E+000
 0.129999999999760E+000
 0.131249999999757E+000
 0.132499999999754E+000
 0.133749999999750E+000
 0.134999999999747E+000
 0.136249999999743E+000
 0.137499999999739E+000
 0.138749999999736E+000
 0.139999999999732E+000
 0.141249999999728E+000
 0.142499999999725E+000
 0.143749999999721E+000
 0.144999999999717E+000
 0.146249999999714E+000
 0.147499999999710E+000
 0.148749999999707E+000
 0.149999999999703E+000
 0.151249999999699E+000
 0.152499999999696E+000
 0.153749999999692E+000
 0.154999999999688E+000
 0.156249999999685E+000
 0.157499999999681E+000
 0.158749999999677E+000
 0.159999999999674E+000
 0.161249999999670E+000
 0.162499999999666E+000
 0.163749999999663E+000
 0.164999999999659E+000
 0.166249999999655E+000
 0.167499999999652E+000
 0.168749999999648E+000
 0.169999999999644E+000
 0.171249999999641E+000
 0.172499999999637E+000
 0.173749999999634E+000
 0.174999999999630E+000
 0.176249999999626E+000
 0.177499999999623E+000
 0.178749999999619E+000
 0.179999999999615E+000
 0.181249999999612E+000
 0.182499999999608E+000
 0.183749999999604E+000
 0.184999999999601E+000
 0.186249999999597E+000
 0.187499999999593E+000
 0.188749999999590E+000
 0.189999999999586E+000
 0.191249999999582E+000
 0.192499999999579E+000
 0.193749999999575E+000
 0.194999999999571E+000
 0.196249999999568E+000
 0.197499999999564E+000
 0.198749999999561E+000
 0.199999999999557E+000
 0.201249999999553E+000
 0.202499999999550E+000
 0.203749999999546E+000
 0.204999999999542E+000
 0.206249999999539E+000
 0.207499999999535E+000
 0.208749999999531E+000
 0.209999999999528E+000
 0.211249999999524E+000
 0.212499999999520E+000
 0.213749999999517E+000
 0.214999999999513E+000
 0.216249999999510E+000
 0.217499999999506E+000
 0.218749999999502E+000
 0.219999999999499E+000
 0.221249999999495E+000
 0.222499999999491E+000
 0.223749999999488E+000
 0.224999999999484E+000
 0.226249999999480E+000
 0.227499999999477E+000
 0.228749999999473E+000
 0.229999999999469E+000
 0.231249999999466E+000
 0.232499999999462E+000
 0.233749999999458E+000
 0.234999999999455E+000
 0.236249999999451E+000
 0.237499999999447E+000
 0.238749999999444E+000
 0.239999999999440E+000
 0.241249999999436E+000
 0.242499999999433E+000
 0.243749999999429E+000
 0.244999999999426E+000
 0.246249999999422E+000
 0.247499999999418E+000
 0.248749999999415E+000
 0.249999999999411E+000
 0.251249999999407E+000
 0.252499999999404E+000
 0.253749999999400E+000
 0.254999999999396E+000
 0.256249999999393E+000
 0.257499999999389E+000
 0.258749999999385E+000
 0.259999999999382E+000
 0.261249999999378E+000
 0.262499999999375E+000
 0.263749999999371E+000
 0.264999999999367E+000
 0.266249999999363E+000
 0.267499999999360E+000
 0.268749999999356E+000
 0.269999999999352E+000
 0.271249999999349E+000
 0.272499999999345E+000
 0.273749999999342E+000
 0.274999999999338E+000
 0.276249999999334E+000
 0.277499999999331E+000
 0.278749999999327E+000
 0.279999999999323E+000
 0.281249999999320E+000
 0.282499999999316E+000
 0.283749999999312E+000
 0.284999999999309E+000
 0.286249999999305E+000
 0.287499999999301E+000
 0.288749999999298E+000
 0.289999999999294E+000
 0.291249999999291E+000
 0.292499999999287E+000
 0.293749999999283E+000
 0.294999999999280E+000
 0.296249999999276E+000
 0.297499999999272E+000
 0.298749999999269E+000
 0.299999999999265E+000
 0.301249999999261E+000
 0.302499999999258E+000
 0.303749999999254E+000
 0.304999999999250E+000
 0.306249999999247E+000
 0.307499999999243E+000
 0.308749999999240E+000
 0.309999999999236E+000
 0.311249999999232E+000
 0.312499999999229E+000
 0.313749999999225E+000
 0.314999999999221E+000
 0.316249999999217E+000
 0.317499999999214E+000
 0.318749999999210E+000
 0.319999999999207E+000
 0.321249999999203E+000
 0.322499999999199E+000
 0.323749999999196E+000
 0.324999999999192E+000
 0.326249999999188E+000
 0.327499999999185E+000
 0.328749999999181E+000
 0.329999999999178E+000
 0.331249999999174E+000
 0.332499999999170E+000
 0.333749999999166E+000
 0.334999999999163E+000
 0.336249999999159E+000
 0.337499999999155E+000
 0.338749999999152E+000
 0.339999999999148E+000
 0.341249999999145E+000
 0.342499999999141E+000
 0.343749999999137E+000
 0.344999999999134E+000
 0.346249999999130E+000
 0.347499999999126E+000
 0.348749999999123E+000
 0.349999999999119E+000
 0.351249999999115E+000
 0.352499999999112E+000
 0.353749999999108E+000
 0.354999999999104E+000
 0.356249999999101E+000
 0.357499999999097E+000
 0.358749999999094E+000
 0.359999999999090E+000
 0.361249999999086E+000
 0.362499999999083E+000
 0.363749999999079E+000
 0.364999999999075E+000
 0.366249999999072E+000
 0.367499999999068E+000
 0.368749999999064E+000
 0.369999999999061E+000
 0.371249999999057E+000
 0.372499999999053E+000
 0.373749999999050E+000
 0.374999999999046E+000
 0.376249999999042E+000
 0.377499999999039E+000
 0.378749999999035E+000
 0.379999999999032E+000
 0.381249999999028E+000
 0.382499999999024E+000
 0.383749999999020E+000
 0.384999999999017E+000
 0.386249999999013E+000
 0.387499999999010E+000
 0.388749999999006E+000
 0.389999999999002E+000
 0.391249999998999E+000
 0.392499999998995E+000
 0.393749999998991E+000
 0.394999999998988E+000
 0.396249999998984E+000
 0.397499999998980E+000
 0.398749999998977E+000
 0.399999999998973E+000
 0.401249999998969E+000
 0.402499999998966E+000
 0.403749999998962E+000
 0.404999999998959E+000
 0.406249999998955E+000
 0.407499999998951E+000
 0.408749999998948E+000
 0.409999999998944E+000
 0.411249999998940E+000
 0.412499999998937E+000
 0.413749999998933E+000
 0.414999999998929E+000
 0.416249999998926E+000
 0.417499999998922E+000
 0.418749999998918E+000
 0.419999999998915E+000
 0.421249999998911E+000
 0.422499999998907E+000
 0.423749999998904E+000
 0.424999999998900E+000
 0.426249999998897E+000
 0.427499999998893E+000
 0.428749999998889E+000
 0.429999999998886E+000
 0.431249999998882E+000
 0.432499999998878E+000
 0.433749999998875E+000
 0.434999999998871E+000
 0.436249999998867E+000
 0.437499999998864E+000
 0.438749999998860E+000
 0.439999999998856E+000
 0.441249999998853E+000
 0.442499999998849E+000
 0.443749999998845E+000
 0.444999999998842E+000
 0.446249999998838E+000
 0.447499999998834E+000
 0.448749999998831E+000
 0.449999999998827E+000
 0.451249999998823E+000
 0.452499999998820E+000
 0.453749999998816E+000
 0.454999999998813E+000
 0.456249999998809E+000
 0.457499999998805E+000
 0.458749999998802E+000
 0.459999999998798E+000
 0.461249999998794E+000
 0.462499999998791E+000
 0.463749999998787E+000
 0.464999999998783E+000
 0.466249999998780E+000
 0.467499999998776E+000
 0.468749999998772E+000
 0.469999999998769E+000
 0.471249999998765E+000
 0.472499999998762E+000
 0.473749999998758E+000
 0.474999999998754E+000
 0.476249999998751E+000
 0.477499999998747E+000
 0.478749999998743E+000
 0.479999999998740E+000
 0.481249999998736E+000
 0.482499999998732E+000
 0.483749999998729E+000
 0.484999999998725E+000
 0.486249999998721E+000
 0.487499999998718E+000
 0.488749999998714E+000
 0.489999999998710E+000
 0.491249999998707E+000
 0.492499999998703E+000
 0.493749999998702E+000
 0.494999999998700E+000
 0.496249999998698E+000
 0.497499999998696E+000
 0.498749999998694E+000
 0.499999999998692E+000
 0.501249999998694E+000
 0.502499999998695E+000
 0.503749999998697E+000
 0.504999999998698E+000
 0.506249999998700E+000
 0.507499999998701E+000
 0.508749999998704E+000
 0.509999999998708E+000
 0.511249999998711E+000
 0.512499999998714E+000
 0.513749999998717E+000
 0.514999999998721E+000
 0.516249999998724E+000
 0.517499999998727E+000
 0.518749999998731E+000
 0.519999999998734E+000
 0.521249999998737E+000
 0.522499999998741E+000
 0.523749999998744E+000
 0.524999999998747E+000
 0.526249999998750E+000
 0.527499999998754E+000
 0.528749999998757E+000
 0.529999999998760E+000
 0.531249999998764E+000
 0.532499999998767E+000
 0.533749999998770E+000
 0.534999999998773E+000
 0.536249999998777E+000
 0.537499999998780E+000
 0.538749999998783E+000
 0.539999999998787E+000
 0.541249999998790E+000
 0.542499999998793E+000
 0.543749999998797E+000
 0.544999999998800E+000
 0.546249999998803E+000
 0.547499999998806E+000
 0.548749999998810E+000
 0.549999999998813E+000
 0.551249999998816E+000
 0.552499999998820E+000
 0.553749999998823E+000
 0.554999999998826E+000
 0.556249999998830E+000
 0.557499999998833E+000
 0.558749999998836E+000
 0.559999999998839E+000
 0.561249999998843E+000
 0.562499999998846E+000
 0.563749999998849E+000
 0.564999999998853E+000
 0.566249999998856E+000
 0.567499999998859E+000
 0.568749999998863E+000
 0.569999999998866E+000
 0.571249999998869E+000
 0.572499999998872E+000
 0.573749999998876E+000
 0.574999999998879E+000
 0.576249999998882E+000
 0.577499999998886E+000
 0.578749999998889E+000
 0.579999999998892E+000
 0.581249999998895E+000
 0.582499999998899E+000
 0.583749999998902E+000
 0.584999999998905E+000
 0.586249999998909E+000
 0.587499999998912E+000
 0.588749999998915E+000
 0.589999999998919E+000
 0.591249999998922E+000
 0.592499999998925E+000
 0.593749999998928E+000
 0.594999999998932E+000
 0.596249999998935E+000
 0.597499999998938E+000
 0.598749999998942E+000
 0.599999999998945E+000
 0.601249999998948E+000
 0.602499999998952E+000
 0.603749999998955E+000
 0.604999999998958E+000
 0.606249999998961E+000
 0.607499999998965E+000
 0.608749999998968E+000
 0.609999999998971E+000
 0.611249999998975E+000
 0.612499999998978E+000
 0.613749999998981E+000
 0.614999999998984E+000
 0.616249999998988E+000
 0.617499999998991E+000
 0.618749999998994E+000
 0.619999999998998E+000
 0.621249999999001E+000
 0.622499999999004E+000
 0.623749999999008E+000
 0.624999999999011E+000
 0.626249999999014E+000
 0.627499999999018E+000
 0.628749999999021E+000
 0.629999999999024E+000
 0.631249999999027E+000
 0.632499999999031E+000
 0.633749999999034E+000
 0.634999999999037E+000
 0.636249999999041E+000
 0.637499999999044E+000
 0.638749999999047E+000
 0.639999999999050E+000
 0.641249999999054E+000
 0.642499999999057E+000
 0.643749999999060E+000
 0.644999999999064E+000
 0.646249999999067E+000
 0.647499999999070E+000
 0.648749999999073E+000
 0.649999999999077E+000
 0.651249999999080E+000
 0.652499999999083E+000
 0.653749999999087E+000
 0.654999999999090E+000
 0.656249999999093E+000
 0.657499999999097E+000
 0.658749999999100E+000
 0.659999999999103E+000
 0.661249999999106E+000
 0.662499999999110E+000
 0.663749999999113E+000
 0.664999999999116E+000
 0.666249999999120E+000
 0.667499999999123E+000
 0.668749999999126E+000
 0.669999999999130E+000
 0.671249999999133E+000
 0.672499999999136E+000
 0.673749999999140E+000
 0.674999999999143E+000
 0.676249999999146E+000
 0.677499999999149E+000
 0.678749999999153E+000
 0.679999999999156E+000
 0.681249999999159E+000
 0.682499999999163E+000
 0.683749999999166E+000
 0.684999999999169E+000
 0.686249999999172E+000
 0.687499999999176E+000
 0.688749999999179E+000
 0.689999999999182E+000
 0.691249999999186E+000
 0.692499999999189E+000
 0.693749999999192E+000
 0.694999999999196E+000
 0.696249999999199E+000
 0.697499999999202E+000
 0.698749999999205E+000
 0.699999999999209E+000
 0.701249999999212E+000
 0.702499999999215E+000
 0.703749999999219E+000
 0.704999999999222E+000
 0.706249999999225E+000
 0.707499999999228E+000
 0.708749999999232E+000
 0.709999999999235E+000
 0.711249999999238E+000
 0.712499999999242E+000
 0.713749999999245E+000
 0.714999999999248E+000
 0.716249999999252E+000
 0.717499999999255E+000
 0.718749999999258E+000
 0.719999999999261E+000
 0.721249999999265E+000
 0.722499999999268E+000
 0.723749999999271E+000
 0.724999999999275E+000
 0.726249999999278E+000
 0.727499999999281E+000
 0.728749999999284E+000
 0.729999999999288E+000
 0.731249999999291E+000
 0.732499999999294E+000
 0.733749999999298E+000
 0.734999999999301E+000
 0.736249999999304E+000
 0.737499999999308E+000
 0.738749999999311E+000
 0.739999999999314E+000
 0.741249999999318E+000
 0.742499999999321E+000
 0.743749999999324E+000
 0.744999999999327E+000
 0.746249999999331E+000
 0.747499999999334E+000
 0.748749999999337E+000
 0.749999999999341E+000
 0.751249999999344E+000
 0.752499999999347E+000
 0.753749999999350E+000
 0.754999999999354E+000
 0.756249999999357E+000
 0.757499999999360E+000
 0.758749999999364E+000
 0.759999999999367E+000
 0.761249999999370E+000
 0.762499999999374E+000
 0.763749999999377E+000
 0.764999999999380E+000
 0.766249999999383E+000
 0.767499999999387E+000
 0.768749999999390E+000
 0.769999999999393E+000
 0.771249999999397E+000
 0.772499999999400E+000
 0.773749999999403E+000
 0.774999999999406E+000
 0.776249999999410E+000
 0.777499999999413E+000
 0.778749999999416E+000
 0.779999999999420E+000
 0.781249999999423E+000
 0.782499999999426E+000
 0.783749999999430E+000
 0.784999999999433E+000
 0.786249999999436E+000
 0.787499999999440E+000
 0.788749999999443E+000
 0.789999999999446E+000
 0.791249999999449E+000
 0.792499999999453E+000
 0.793749999999456E+000
 0.794999999999459E+000
 0.796249999999463E+000
 0.797499999999466E+000
 0.798749999999469E+000
 0.799999999999472E+000
 0.801249999999476E+000
 0.802499999999479E+000
 0.803749999999482E+000
 0.804999999999486E+000
 0.806249999999489E+000
 0.807499999999492E+000
 0.808749999999496E+000
 0.809999999999499E+000
 0.811249999999502E+000
 0.812499999999505E+000
 0.813749999999509E+000
 0.814999999999512E+000
 0.816249999999515E+000
 0.817499999999519E+000
 0.818749999999522E+000
 0.819999999999525E+000
 0.821249999999528E+000
 0.822499999999532E+000
 0.823749999999535E+000
 0.824999999999538E+000
 0.826249999999542E+000
 0.827499999999545E+000
 0.828749999999548E+000
 0.829999999999552E+000
 0.831249999999555E+000
 0.832499999999558E+000
 0.833749999999561E+000
 0.834999999999565E+000
 0.836249999999568E+000
 0.837499999999571E+000
 0.838749999999575E+000
 0.839999999999578E+000
 0.841249999999581E+000
 0.842499999999584E+000
 0.843749999999588E+000
 0.844999999999591E+000
 0.846249999999594E+000
 0.847499999999598E+000
 0.848749999999601E+000
 0.849999999999604E+000
 0.851249999999608E+000
 0.852499999999611E+000
 0.853749999999614E+000
 0.854999999999618E+000
 0.856249999999621E+000
 0.857499999999624E+000
 0.858749999999627E+000
 0.859999999999631E+000
 0.861249999999634E+000
 0.862499999999637E+000
 0.863749999999641E+000
 0.864999999999644E+000
 0.866249999999647E+000
 0.867499999999650E+000
 0.868749999999654E+000
 0.869999999999657E+000
 0.871249999999660E+000
 0.872499999999664E+000
 0.873749999999667E+000
 0.874999999999670E+000
 0.876249999999674E+000
 0.877499999999677E+000
 0.878749999999680E+000
 0.879999999999683E+000
 0.881249999999687E+000
 0.882499999999690E+000
 0.883749999999693E+000
 0.884999999999697E+000
 0.886249999999700E+000
 0.887499999999703E+000
 0.888749999999706E+000
 0.889999999999710E+000
 0.891249999999713E+000
 0.892499999999717E+000
 0.893749999999720E+000
 0.894999999999723E+000
 0.896249999999726E+000
 0.897499999999730E+000
 0.898749999999733E+000
 0.899999999999736E+000
 0.901249999999740E+000
 0.902499999999743E+000
 0.903749999999746E+000
 0.904999999999749E+000
 0.906249999999753E+000
 0.907499999999756E+000
 0.908749999999759E+000
 0.909999999999763E+000
 0.911249999999766E+000
 0.912499999999769E+000
 0.913749999999772E+000
 0.914999999999776E+000
 0.916249999999779E+000
 0.917499999999782E+000
 0.918749999999786E+000
 0.919999999999789E+000
 0.921249999999792E+000
 0.922499999999796E+000
 0.923749999999799E+000
 0.924999999999802E+000
 0.926249999999805E+000
 0.927499999999809E+000
 0.928749999999812E+000
 0.929999999999815E+000
 0.931249999999819E+000
 0.932499999999822E+000
 0.933749999999825E+000
 0.934999999999828E+000
 0.936249999999832E+000
 0.937499999999835E+000
 0.938749999999838E+000
 0.939999999999842E+000
 0.941249999999845E+000
 0.942499999999848E+000
 0.943749999999852E+000
 0.944999999999855E+000
 0.946249999999858E+000
 0.947499999999861E+000
 0.948749999999865E+000
 0.949999999999868E+000
 0.951249999999871E+000
 0.952499999999875E+000
 0.953749999999878E+000
 0.954999999999881E+000
 0.956249999999884E+000
 0.957499999999888E+000
 0.958749999999891E+000
 0.959999999999894E+000
 0.961249999999898E+000
 0.962499999999901E+000
 0.963749999999904E+000
 0.964999999999908E+000
 0.966249999999911E+000
 0.967499999999914E+000
 0.968749999999918E+000
 0.969999999999921E+000
 0.971249999999924E+000
 0.972499999999927E+000
 0.973749999999931E+000
 0.974999999999934E+000
 0.976249999999937E+000
 0.977499999999941E+000
 0.978749999999944E+000
 0.979999999999947E+000
 0.981249999999951E+000
 0.982499999999954E+000
 0.983749999999957E+000
 0.984999999999960E+000
 0.986249999999964E+000
 0.987499999999967E+000
 0.988749999999970E+000
 0.989999999999974E+000
 0.991249999999977E+000
 0.992499999999980E+000
 0.993749999999983E+000
 0.994999999999987E+000
 0.996249999999990E+000
 0.997499999999993E+000
 0.998749999999997E+000
 0.100000000000000E+001
 0.000000000000000E+000
 0.125000000000519E-002
 0.250000000001038E-002
 0.375000000001568E-002
 0.500000000002088E-002
 0.625000000002596E-002
 0.750000000003115E-002
 0.875000000003634E-002
 0.100000000000416E-001
 0.112500000000468E-001
 0.125000000000520E-001
 0.137500000000572E-001
 0.150000000000625E-001
 0.162500000000676E-001
 0.175000000000728E-001
 0.187500000000780E-001
 0.200000000000832E-001
 0.212500000000885E-001
 0.225000000000937E-001
 0.237500000000989E-001
 0.250000000001041E-001
 0.262500000001092E-001
 0.275000000001144E-001
 0.287500000001196E-001
 0.300000000001248E-001
 0.312500000001300E-001
 0.325000000001353E-001
 0.337500000001405E-001
 0.350000000001457E-001
 0.362500000001509E-001
 0.375000000001561E-001
 0.387500000001613E-001
 0.400000000001665E-001
 0.412500000001716E-001
 0.425000000001768E-001
 0.437500000001821E-001
 0.450000000001873E-001
 0.462500000001925E-001
 0.475000000001976E-001
 0.487500000002029E-001
 0.500000000002081E-001
 0.512500000002133E-001
 0.525000000002185E-001
 0.537500000002237E-001
 0.550000000002290E-001
 0.562500000002342E-001
 0.575000000002392E-001
 0.587500000002444E-001
 0.600000000002497E-001
 0.612500000002549E-001
 0.625000000002601E-001
 0.637500000002653E-001
 0.650000000002705E-001
 0.662500000002758E-001
 0.675000000002810E-001
 0.687500000002861E-001
 0.700000000002913E-001
 0.712500000002966E-001
 0.725000000003018E-001
 0.737500000003070E-001
 0.750000000003122E-001
 0.762500000003173E-001
 0.775000000003226E-001
 0.787500000003277E-001
 0.800000000003329E-001
 0.812500000003381E-001
 0.825000000003434E-001
 0.837500000003486E-001
 0.850000000003538E-001
 0.862500000003590E-001
 0.875000000003642E-001
 0.887500000003694E-001
 0.900000000003746E-001
 0.912500000003797E-001
 0.925000000003849E-001
 0.937500000003902E-001
 0.950000000003954E-001
 0.962500000004006E-001
 0.975000000004058E-001
 0.987500000004110E-001
 0.100000000000416E+000
 0.101250000000421E+000
 0.102500000000427E+000
 0.103750000000432E+000
 0.105000000000437E+000
 0.106250000000442E+000
 0.107500000000448E+000
 0.108750000000453E+000
 0.110000000000458E+000
 0.111250000000463E+000
 0.112500000000468E+000
 0.113750000000473E+000
 0.115000000000479E+000
 0.116250000000484E+000
 0.117500000000489E+000
 0.118750000000494E+000
 0.120000000000499E+000
 0.121250000000505E+000
 0.122500000000510E+000
 0.123750000000515E+000
 0.125000000000520E+000
 0.126250000000525E+000
 0.127500000000531E+000
 0.128750000000536E+000
 0.130000000000541E+000
 0.131250000000546E+000
 0.132500000000551E+000
 0.133750000000557E+000
 0.135000000000562E+000
 0.136250000000567E+000
 0.137500000000572E+000
 0.138750000000578E+000
 0.140000000000583E+000
 0.141250000000588E+000
 0.142500000000593E+000
 0.143750000000598E+000
 0.145000000000604E+000
 0.146250000000609E+000
 0.147500000000614E+000
 0.148750000000619E+000
 0.150000000000624E+000
 0.151250000000629E+000
 0.152500000000635E+000
 0.153750000000640E+000
 0.155000000000645E+000
 0.156250000000650E+000
 0.157500000000656E+000
 0.158750000000661E+000
 0.160000000000666E+000
 0.161250000000671E+000
 0.162500000000676E+000
 0.163750000000681E+000
 0.165000000000687E+000
 0.166250000000692E+000
 0.167500000000697E+000
 0.168750000000702E+000
 0.170000000000708E+000
 0.171250000000713E+000
 0.172500000000718E+000
 0.173750000000723E+000
 0.175000000000728E+000
 0.176250000000733E+000
 0.177500000000739E+000
 0.178750000000744E+000
 0.180000000000749E+000
 0.181250000000754E+000
 0.182500000000759E+000
 0.183750000000765E+000
 0.185000000000770E+000
 0.186250000000775E+000
 0.187500000000780E+000
 0.188750000000786E+000
 0.190000000000791E+000
 0.191250000000796E+000
 0.192500000000801E+000
 0.193750000000806E+000
 0.195000000000812E+000
 0.196250000000817E+000
 0.197500000000822E+000
 0.198750000000827E+000
 0.200000000000833E+000
 0.201250000000838E+000
 0.202500000000843E+000
 0.203750000000848E+000
 0.205000000000853E+000
 0.206250000000858E+000
 0.207500000000864E+000
 0.208750000000869E+000
 0.210000000000874E+000
 0.211250000000879E+000
 0.212500000000885E+000
 0.213750000000890E+000
 0.215000000000895E+000
 0.216250000000900E+000
 0.217500000000905E+000
 0.218750000000910E+000
 0.220000000000916E+000
 0.221250000000921E+000
 0.222500000000926E+000
 0.223750000000931E+000
 0.225000000000937E+000
 0.226250000000942E+000
 0.227500000000947E+000
 0.228750000000952E+000
 0.230000000000957E+000
 0.231250000000962E+000
 0.232500000000968E+000
 0.233750000000973E+000
 0.235000000000978E+000
 0.236250000000983E+000
 0.237500000000989E+000
 0.238750000000994E+000
 0.240000000000999E+000
 0.241250000001004E+000
 0.242500000001009E+000
 0.243750000001014E+000
 0.245000000001020E+000
 0.246250000001025E+000
 0.247500000001030E+000
 0.248750000001035E+000
 0.250000000001041E+000
 0.251250000001046E+000
 0.252500000001051E+000
 0.253750000001056E+000
 0.255000000001061E+000
 0.256250000001067E+000
 0.257500000001072E+000
 0.258750000001077E+000
 0.260000000001082E+000
 0.261250000001087E+000
 0.262500000001093E+000
 0.263750000001098E+000
 0.265000000001103E+000
 0.266250000001108E+000
 0.267500000001113E+000
 0.268750000001119E+000
 0.270000000001124E+000
 0.271250000001129E+000
 0.272500000001134E+000
 0.273750000001140E+000
 0.275000000001145E+000
 0.276250000001150E+000
 0.277500000001155E+000
 0.278750000001160E+000
 0.280000000001165E+000
 0.281250000001171E+000
 0.282500000001176E+000
 0.283750000001181E+000
 0.285000000001186E+000
 0.286250000001191E+000
 0.287500000001197E+000
 0.288750000001202E+000
 0.290000000001207E+000
 0.291250000001212E+000
 0.292500000001218E+000
 0.293750000001223E+000
 0.295000000001228E+000
 0.296250000001233E+000
 0.297500000001238E+000
 0.298750000001243E+000
 0.300000000001249E+000
 0.301250000001254E+000
 0.302500000001259E+000
 0.303750000001264E+000
 0.305000000001269E+000
 0.306250000001275E+000
 0.307500000001280E+000
 0.308750000001285E+000
 0.310000000001290E+000
 0.311250000001295E+000
 0.312500000001301E+000
 0.313750000001306E+000
 0.315000000001311E+000
 0.316250000001316E+000
 0.317500000001322E+000
 0.318750000001327E+000
 0.320000000001332E+000
 0.321250000001337E+000
 0.322500000001342E+000
 0.323750000001348E+000
 0.325000000001353E+000
 0.326250000001358E+000
 0.327500000001363E+000
 0.328750000001368E+000
 0.330000000001373E+000
 0.331250000001379E+000
 0.332500000001384E+000
 0.333750000001389E+000
 0.335000000001394E+000
 0.336250000001400E+000
 0.337500000001405E+000
 0.338750000001410E+000
 0.340000000001415E+000
 0.341250000001420E+000
 0.342500000001426E+000
 0.343750000001431E+000
 0.345000000001436E+000
 0.346250000001441E+000
 0.347500000001446E+000
 0.348750000001452E+000
 0.350000000001457E+000
 0.351250000001462E+000
 0.352500000001467E+000
 0.353750000001472E+000
 0.355000000001478E+000
 0.356250000001483E+000
 0.357500000001488E+000
 0.358750000001493E+000
 0.360000000001498E+000
 0.361250000001503E+000
 0.362500000001509E+000
 0.363750000001514E+000
 0.365000000001519E+000
 0.366250000001524E+000
 0.367500000001530E+000
 0.368750000001535E+000
 0.370000000001540E+000
 0.371250000001545E+000
 0.372500000001550E+000
 0.373750000001556E+000
 0.375000000001561E+000
 0.376250000001566E+000
 0.377500000001571E+000
 0.378750000001576E+000
 0.380000000001582E+000
 0.381250000001587E+000
 0.382500000001592E+000
 0.383750000001597E+000
 0.385000000001602E+000
 0.386250000001608E+000
 0.387500000001613E+000
 0.388750000001618E+000
 0.390000000001623E+000
 0.391250000001629E+000
 0.392500000001634E+000
 0.393750000001639E+000
 0.395000000001644E+000
 0.396250000001649E+000
 0.397500000001654E+000
 0.398750000001660E+000
 0.400000000001665E+000
 0.401250000001670E+000
 0.402500000001675E+000
 0.403750000001680E+000
 0.405000000001686E+000
 0.406250000001691E+000
 0.407500000001696E+000
 0.408750000001701E+000
 0.410000000001707E+000
 0.411250000001712E+000
 0.412500000001717E+000
 0.413750000001722E+000
 0.415000000001727E+000
 0.416250000001733E+000
 0.417500000001738E+000
 0.418750000001743E+000
 0.420000000001748E+000
 0.421250000001753E+000
 0.422500000001759E+000
 0.423750000001764E+000
 0.425000000001769E+000
 0.426250000001774E+000
 0.427500000001779E+000
 0.428750000001784E+000
 0.430000000001790E+000
 0.431250000001795E+000
 0.432500000001800E+000
 0.433750000001805E+000
 0.435000000001810E+000
 0.436250000001816E+000
 0.437500000001821E+000
 0.438750000001826E+000
 0.440000000001831E+000
 0.441250000001837E+000
 0.442500000001842E+000
 0.443750000001847E+000
 0.445000000001852E+000
 0.446250000001857E+000
 0.447500000001863E+000
 0.448750000001868E+000
 0.450000000001873E+000
 0.451250000001878E+000
 0.452500000001883E+000
 0.453750000001889E+000
 0.455000000001894E+000
 0.456250000001899E+000
 0.457500000001904E+000
 0.458750000001910E+000
 0.460000000001915E+000
 0.461250000001920E+000
 0.462500000001925E+000
 0.463750000001930E+000
 0.465000000001935E+000
 0.466250000001941E+000
 0.467500000001946E+000
 0.468750000001951E+000
 0.470000000001956E+000
 0.471250000001961E+000
 0.472500000001967E+000
 0.473750000001972E+000
 0.475000000001977E+000
 0.476250000001982E+000
 0.477500000001987E+000
 0.478750000001993E+000
 0.480000000001998E+000
 0.481250000002003E+000
 0.482500000002008E+000
 0.483750000002014E+000
 0.485000000002019E+000
 0.486250000002024E+000
 0.487500000002029E+000
 0.488750000002034E+000
 0.490000000002040E+000
 0.491250000002045E+000
 0.492500000002049E+000
 0.493750000002051E+000
 0.495000000002053E+000
 0.496250000002054E+000
 0.497500000002056E+000
 0.498750000002058E+000
 0.500000000002059E+000
 0.501250000002054E+000
 0.502500000002049E+000
 0.503750000002044E+000
 0.505000000002039E+000
 0.506250000002033E+000
 0.507500000002028E+000
 0.508750000002020E+000
 0.510000000002012E+000
 0.511250000002003E+000
 0.512500000001994E+000
 0.513750000001986E+000
 0.515000000001977E+000
 0.516250000001968E+000
 0.517500000001960E+000
 0.518750000001951E+000
 0.520000000001942E+000
 0.521250000001934E+000
 0.522500000001925E+000
 0.523750000001916E+000
 0.525000000001908E+000
 0.526250000001899E+000
 0.527500000001890E+000
 0.528750000001882E+000
 0.530000000001873E+000
 0.531250000001864E+000
 0.532500000001856E+000
 0.533750000001847E+000
 0.535000000001838E+000
 0.536250000001830E+000
 0.537500000001821E+000
 0.538750000001812E+000
 0.540000000001804E+000
 0.541250000001795E+000
 0.542500000001786E+000
 0.543750000001778E+000
 0.545000000001769E+000
 0.546250000001760E+000
 0.547500000001752E+000
 0.548750000001743E+000
 0.550000000001734E+000