 VARIABLES ="x" "y" "z" "y+" "tauX" "tauY" "tauZ" "pw" "Tw" "qw"
 ZONE  T = B1F3, I=850, J=1, K=2, DATAPACKING=BLOCK, VARLOCATION=([1-3]=NODAL,[4-10]=CELLCENTERED), SOLUTIONTIME=0.100000000000000E+006, STRANDID = 0
-0.100000000000000E-001
-0.988095238095189E-002
-0.976190476190380E-002
-0.964285714285640E-002
-0.952380952380933E-002
-0.940476190476226E-002
-0.928571428571518E-002
-0.916666666666811E-002
-0.904761904762103E-002
-0.892857142857396E-002
-0.880952380952688E-002
-0.869047619047981E-002
-0.857142857143274E-002
-0.845238095238566E-002
-0.833333333333847E-002
-0.821428571429088E-002
-0.809523809524329E-002
-0.797619047619570E-002
-0.785714285714811E-002
-0.773809523810036E-002
-0.761904761905276E-002
-0.750000000000534E-002
-0.738095238095826E-002
-0.726190476191119E-002
-0.714285714286412E-002
-0.702380952381704E-002
-0.690476190476997E-002
-0.678571428572289E-002
-0.666666666667582E-002
-0.654761904762875E-002
-0.642857142858155E-002
-0.630952380953401E-002
-0.619047619048642E-002
-0.607142857143887E-002
-0.595238095239168E-002
-0.583333333334460E-002
-0.571428571429753E-002
-0.559523809525016E-002
-0.547619047620257E-002
-0.535714285715498E-002
-0.523809523810755E-002
-0.511904761906047E-002
-0.500000000001322E-002
-0.488095238096528E-002
-0.476190476191718E-002
-0.464285714286916E-002
-0.452380952382150E-002
-0.440476190477391E-002
-0.428571428572610E-002
-0.416666666667800E-002
-0.404761904762989E-002
-0.392857142858178E-002
-0.380952380953367E-002
-0.369047619048557E-002
-0.357142857143773E-002
-0.345238095239014E-002
-0.333333333334249E-002
-0.321428571429449E-002
-0.309523809524639E-002
-0.297619047619828E-002
-0.285714285715017E-002
-0.273809523810206E-002
-0.261904761905429E-002
-0.250000000000670E-002
-0.238095238095911E-002
-0.226190476191133E-002
-0.214285714286322E-002
-0.202380952381512E-002
-0.190476190476701E-002
-0.178571428571890E-002
-0.166666666667079E-002
-0.154761904762268E-002
-0.142857142857458E-002
-0.130952380952647E-002
-0.119047619047836E-002
-0.107142857143079E-002
-0.952380952383714E-003
-0.833333333336527E-003
-0.714285714288644E-003
-0.595238095240537E-003
-0.476190476192431E-003
-0.357142857144322E-003
-0.238095238096215E-003
-0.119047619048107E-003
 0.000000000000000E+000
 0.735288888887442E-003
 0.147057777777489E-002
 0.220586666666234E-002
 0.294115555554982E-002
 0.367644444443732E-002
 0.441173333332483E-002
 0.514702222221233E-002
 0.588231111109969E-002
 0.661759999998701E-002
 0.735288888887418E-002
 0.808817777776134E-002
 0.882346666664851E-002
 0.955875555553587E-002
 0.102940444444233E-001
 0.110293333333110E-001
 0.117646222221986E-001
 0.124999111110863E-001
 0.132351999999739E-001
 0.139704888888616E-001
 0.147057777777492E-001
 0.154410666666368E-001
 0.161763555555243E-001
 0.169116444444118E-001
 0.176469333332995E-001
 0.183822222221871E-001
 0.191175111110748E-001
 0.198527999999621E-001
 0.205880888888494E-001
 0.213233777777367E-001
 0.220586666666239E-001
 0.227939555555108E-001
 0.235292444443975E-001
 0.242645333332840E-001
 0.249998222221705E-001
 0.257351111110570E-001
 0.264703999999435E-001
 0.272056888888300E-001
 0.279409777777169E-001
 0.286762666666037E-001
 0.294115555554906E-001
 0.301468444443775E-001
 0.308821333332644E-001
 0.316174222221512E-001
 0.323527111110381E-001
 0.330879999999246E-001
 0.338232888888111E-001
 0.345585777776976E-001
 0.352938666665841E-001
 0.360291555554706E-001
 0.367644444443570E-001
 0.374997333332436E-001
 0.382350222221308E-001
 0.389703111110181E-001
 0.397055999999053E-001
 0.404408888887922E-001
 0.411761777776787E-001
 0.419114666665652E-001
 0.426467555554517E-001
 0.433820444443389E-001
 0.441173333332262E-001
 0.448526222221135E-001
 0.455879111110004E-001
 0.463231999998868E-001
 0.470584888887733E-001
 0.477937777776598E-001
 0.485290666665463E-001
 0.492643555554328E-001
 0.499996444443193E-001
 0.507349333332058E-001
 0.514702222220923E-001
 0.522055111109793E-001
 0.529407999998666E-001
 0.536760888887538E-001
 0.544113777776410E-001
 0.551466666665275E-001
 0.558819555554139E-001
 0.566172444443004E-001
 0.573525333331869E-001
 0.580878222220734E-001
 0.588231111109599E-001
 0.595583999998464E-001
 0.602936888887329E-001
 0.610289777776197E-001
 0.617642666665069E-001
 0.624995555553942E-001
 0.632348444442815E-001
 0.639701333331694E-001
 0.647054222220574E-001
 0.654407111109455E-001
 0.661759999998329E-001
 0.669112888887194E-001
 0.676465777776059E-001
 0.683818666664924E-001
 0.691171555553789E-001
 0.698524444442654E-001
 0.705877333331519E-001
 0.713230222220384E-001
 0.720583111109249E-001
 0.727935999998122E-001
 0.735288888887003E-001
 0.742641777775883E-001
 0.749994666664762E-001
 0.757347555553627E-001
 0.764700444442492E-001
 0.772053333331357E-001
 0.779406222220222E-001
 0.786759111109087E-001
 0.794111999997952E-001
 0.801464888886817E-001
 0.808817777775682E-001
 0.816170666664551E-001
 0.823523555553431E-001
 0.830876444442319E-001
 0.838229333331215E-001
 0.845582222220111E-001
 0.852935111109006E-001
 0.860287999997917E-001
 0.867640888886832E-001
 0.874993777775759E-001
 0.882346666664678E-001
 0.889699555553589E-001
 0.897052444442489E-001
 0.904405333331385E-001
 0.911758222220281E-001
 0.919111111109177E-001
 0.926463999998072E-001
 0.933816888886968E-001
 0.941169777775864E-001
 0.948522666664770E-001
 0.955875555553681E-001
 0.963228444442607E-001
 0.970581333331533E-001
 0.977934222220460E-001
 0.985287111109380E-001
 0.992639999998291E-001
 0.999992888887193E-001
 0.100734577777609E+000
 0.101469866666498E+000
 0.102205155555388E+000
 0.102940444444278E+000
 0.103675733333168E+000
 0.104411022222059E+000
 0.105146311110951E+000
 0.105881599999844E+000
 0.106616888888736E+000
 0.107352177777629E+000
 0.108087466666520E+000
 0.108822755555410E+000
 0.109558044444300E+000
 0.110293333333190E+000
 0.111028622222079E+000
 0.111763911110969E+000
 0.112499199999858E+000
 0.113234488888749E+000
 0.113969777777641E+000
 0.114705066666534E+000
 0.115440355555427E+000
 0.116175644444319E+000
 0.116910933333211E+000
 0.117646222222102E+000
 0.118381511110991E+000
 0.119116799999881E+000
 0.119852088888770E+000
 0.120587377777660E+000
 0.121322666666550E+000
 0.122057955555440E+000
 0.122793244444331E+000
 0.123528533333224E+000
 0.124263822222116E+000
 0.124999111111007E+000
 0.125734399999898E+000
 0.126469688888787E+000
 0.127204977777677E+000
 0.127940266666566E+000
 0.128675555555456E+000
 0.129410844444346E+000
 0.130146133333235E+000
 0.130881422222125E+000
 0.131616711111014E+000
 0.132351999999904E+000
 0.133087288888794E+000
 0.133822577777683E+000
 0.134557866666573E+000
 0.135293155555462E+000
 0.136028444444353E+000
 0.136763733333246E+000
 0.137499022222141E+000
 0.138234311111036E+000
 0.138969599999932E+000
 0.139704888888827E+000
 0.140440177777720E+000
 0.141175466666611E+000
 0.141910755555501E+000
 0.142646044444391E+000
 0.143381333333280E+000
 0.144116622222170E+000
 0.144851911111059E+000
 0.145587199999949E+000
 0.146322488888838E+000
 0.147057777777728E+000
 0.147793066666618E+000
 0.148528355555507E+000
 0.149263644444397E+000
 0.149998933333286E+000
 0.150734222222176E+000
 0.151469511111065E+000
 0.152204799999955E+000
 0.152940088888845E+000
 0.153675377777734E+000
 0.154410666666626E+000
 0.155145955555519E+000
 0.155881244444415E+000
 0.156616533333311E+000
 0.157351822222206E+000
 0.158087111111100E+000
 0.158822399999993E+000
 0.159557688888883E+000
 0.160292977777773E+000
 0.161028266666663E+000
 0.161763555555552E+000
 0.162498844444442E+000
 0.163234133333331E+000
 0.163969422222221E+000
 0.164704711111110E+000
 0.165440000000000E+000
 0.166119999999999E+000
 0.166799999999998E+000
 0.167479999999996E+000
 0.168159999999995E+000
 0.168839999999994E+000
 0.169519999999991E+000
 0.170199999999987E+000
 0.170879999999982E+000
 0.171559999999979E+000
 0.172239999999978E+000
 0.172919999999977E+000
 0.173599999999975E+000
 0.174279999999974E+000
 0.174959999999973E+000
 0.175639999999972E+000
 0.176319999999971E+000
 0.176999999999969E+000
 0.177679999999968E+000
 0.178359999999967E+000
 0.179039999999966E+000
 0.179719999999965E+000
 0.180399999999964E+000
 0.181079999999962E+000
 0.181759999999961E+000
 0.182439999999960E+000
 0.183119999999959E+000
 0.183799999999958E+000
 0.184479999999957E+000
 0.185159999999956E+000
 0.185839999999954E+000
 0.186519999999950E+000
 0.187199999999946E+000
 0.187879999999941E+000
 0.188559999999939E+000
 0.189239999999938E+000
 0.189919999999937E+000
 0.190599999999935E+000
 0.191279999999934E+000
 0.191959999999933E+000
 0.192639999999932E+000
 0.193319999999931E+000
 0.193999999999930E+000
 0.194679999999929E+000
 0.195359999999928E+000
 0.196039999999926E+000
 0.196719999999925E+000
 0.197399999999924E+000
 0.198079999999923E+000
 0.198759999999922E+000
 0.199439999999918E+000
 0.200119999999914E+000
 0.200799999999910E+000
 0.201479999999905E+000
 0.202159999999901E+000
 0.202839999999897E+000
 0.203519999999893E+000
 0.204199999999891E+000
 0.204879999999890E+000
 0.205559999999888E+000
 0.206239999999887E+000
 0.206919999999886E+000
 0.207599999999885E+000
 0.208279999999884E+000
 0.208959999999883E+000
 0.209639999999882E+000
 0.210319999999880E+000
 0.210999999999879E+000
 0.211679999999878E+000
 0.212359999999876E+000
 0.213039999999871E+000
 0.213719999999867E+000
 0.214399999999863E+000
 0.215079999999858E+000
 0.215759999999854E+000
 0.216439999999850E+000
 0.217119999999847E+000
 0.217799999999846E+000
 0.218479999999845E+000
 0.219159999999844E+000
 0.219839999999842E+000
 0.220519999999841E+000
 0.221199999999840E+000
 0.221879999999839E+000
 0.222559999999838E+000
 0.223239999999837E+000
 0.223919999999836E+000
 0.224599999999834E+000
 0.225279999999833E+000
 0.225959999999832E+000
 0.226639999999831E+000
 0.227319999999830E+000
 0.227999999999829E+000
 0.228679999999827E+000
 0.229359999999826E+000
 0.230039999999825E+000
 0.230719999999824E+000
 0.231399999999823E+000
 0.232079999999822E+000
 0.232759999999820E+000
 0.233439999999819E+000
 0.234119999999816E+000
 0.234799999999811E+000
 0.235479999999807E+000
 0.236159999999804E+000
 0.236839999999803E+000
 0.237519999999802E+000
 0.238199999999800E+000
 0.238879999999797E+000
 0.239559999999793E+000
 0.240239999999788E+000
 0.240919999999785E+000
 0.241599999999784E+000
 0.242279999999783E+000
 0.242959999999781E+000
 0.243639999999780E+000
 0.244319999999779E+000
 0.244999999999781E+000
 0.245679999999784E+000
 0.246359999999789E+000
 0.247039999999794E+000
 0.247719999999799E+000
 0.248399999999802E+000
 0.249079999999803E+000
 0.249759999999802E+000
 0.250439999999801E+000
 0.251119999999800E+000
 0.251799999999799E+000
 0.252479999999798E+000
 0.253159999999801E+000
 0.253839999999806E+000
 0.254519999999811E+000
 0.255199999999815E+000
 0.255879999999814E+000
 0.256559999999812E+000
 0.257239999999811E+000
 0.257919999999810E+000
 0.258599999999809E+000
 0.259279999999813E+000
 0.259959999999818E+000
 0.260639999999823E+000
 0.261319999999826E+000
 0.261999999999825E+000
 0.262679999999824E+000
 0.263359999999823E+000
 0.264039999999821E+000
 0.264719999999821E+000
 0.265399999999826E+000
 0.266079999999831E+000
 0.266759999999836E+000
 0.267439999999837E+000
 0.268119999999836E+000
 0.268799999999835E+000
 0.269479999999834E+000
 0.270159999999833E+000
 0.270839999999833E+000
 0.271519999999839E+000
 0.272199999999844E+000
 0.272879999999849E+000
 0.273559999999854E+000
 0.274239999999859E+000
 0.274919999999864E+000
 0.275599999999867E+000
 0.276279999999866E+000
 0.276959999999868E+000
 0.277639999999873E+000
 0.278319999999878E+000
 0.278999999999883E+000
 0.279679999999888E+000
 0.280359999999893E+000
 0.281039999999898E+000
 0.281719999999900E+000
 0.282399999999899E+000
 0.283079999999898E+000
 0.283759999999896E+000
 0.284439999999895E+000
 0.285119999999895E+000
 0.285799999999900E+000
 0.286479999999905E+000
 0.287159999999910E+000
 0.287839999999911E+000
 0.288519999999910E+000
 0.289199999999909E+000
 0.289879999999908E+000
 0.290559999999906E+000
 0.291239999999908E+000
 0.291919999999913E+000
 0.292599999999918E+000
 0.293279999999923E+000
 0.293959999999928E+000
 0.294639999999933E+000
 0.295319999999938E+000
 0.295999999999941E+000
 0.296679999999939E+000
 0.297359999999942E+000
 0.298039999999947E+000
 0.298719999999947E+000
 0.299399999999946E+000
 0.300079999999945E+000
 0.300759999999946E+000
 0.301439999999951E+000
 0.302119999999952E+000
 0.302799999999951E+000
 0.303479999999955E+000
 0.304159999999959E+000
 0.304839999999958E+000
 0.305519999999957E+000
 0.306199999999956E+000
 0.306879999999958E+000
 0.307559999999963E+000
 0.308239999999963E+000
 0.308919999999962E+000
 0.309599999999967E+000
 0.310279999999971E+000
 0.310959999999969E+000
 0.311639999999968E+000
 0.312319999999967E+000
 0.312999999999971E+000
 0.313679999999975E+000
 0.314359999999974E+000
 0.315039999999975E+000
 0.315719999999980E+000
 0.316399999999985E+000
 0.317079999999990E+000
 0.317759999999995E+000
 0.318440000000000E+000
 0.319131497767059E+000
 0.319792893326174E+000
 0.320426239874565E+000
 0.321033409035673E+000
 0.321616110171227E+000
 0.322175907941157E+000
 0.322714236951926E+000
 0.323232415352777E+000
 0.323731656134699E+000
 0.324213077778290E+000
 0.324677713018348E+000
 0.325126516884134E+000
 0.325560374219124E+000
 0.325980105856312E+000
 0.326386473993440E+000
 0.326780187978412E+000
 0.327161908394724E+000
 0.327532251387681E+000
 0.327891792188169E+000
 0.328241068516622E+000
 0.328580583772827E+000
 0.328910809611326E+000
 0.329232188422685E+000
 0.329545135578744E+000
 0.329850041538452E+000
 0.330147273656950E+000
 0.330437177885644E+000
 0.330720080349363E+000
 0.330996288754031E+000
 0.331266093615927E+000
 0.331529769636582E+000
 0.331787576529533E+000
 0.332039760296966E+000
 0.332286553937683E+000
 0.332528178410094E+000
 0.332764843456144E+000
 0.332996748149159E+000
 0.333224081779112E+000
 0.333447024315994E+000
 0.333665747072988E+000
 0.333880413201761E+000
 0.334091178151826E+000
 0.334298190214330E+000
 0.334501590906256E+000
 0.334701515342301E+000
 0.334898092630015E+000
 0.335091446223767E+000
 0.335281694231815E+000
 0.335468949715201E+000
 0.335653320937087E+000
 0.335834911743460E+000
 0.336013821728318E+000
 0.336190146361849E+000
 0.336363977380033E+000
 0.336535402950654E+000
 0.336704507641045E+000
 0.336871373020326E+000
 0.337036077439626E+000
 0.337198696438097E+000
 0.337359302704529E+000
 0.337517966170728E+000
 0.337674754908134E+000
 0.337829733806864E+000
 0.337982966010629E+000
 0.338134512249514E+000
 0.338284431527224E+000
 0.338432780693910E+000
 0.338579614726865E+000
 0.338724987157753E+000
 0.338868949535617E+000
 0.339011551945938E+000
 0.339152842972408E+000
 0.339292869786100E+000
 0.339431678171656E+000
 0.339569312588668E+000
 0.339705816322612E+000
 0.339841231413784E+000
 0.339975598823535E+000
 0.340108958453834E+000
 0.340241349161019E+000
 0.340372808874279E+000
 0.340503374547868E+000
 0.340633082303228E+000
 0.340761967452775E+000
 0.340890064479376E+000
 0.341017407131591E+000
 0.341144028459470E+000
 0.341269960814012E+000
 0.341395235931053E+000
 0.341519884946551E+000
 0.341643938390064E+000
 0.341767426293798E+000
 0.341890378163116E+000
 0.342012823026894E+000
 0.342134789457946E+000
 0.342256305617098E+000
 0.342377399253097E+000
 0.342498097758497E+000
 0.342618428195475E+000
 0.342738417278874E+000
 0.342858091453687E+000
 0.342977476883524E+000
 0.343096599490126E+000
 0.343215484958189E+000
 0.343334158797784E+000
 0.343452646309691E+000
 0.343570972661919E+000
 0.343689162874683E+000
 0.343807241855308E+000
 0.343925234418466E+000
 0.344043165306582E+000
 0.344161059210380E+000
 0.344278940789526E+000
 0.344396834693326E+000
 0.344514765581442E+000
 0.344632758144600E+000
 0.344750837125226E+000
 0.344869027337991E+000
 0.344987353690219E+000
 0.345105841202127E+000
 0.345224515041722E+000
 0.345343400509786E+000
 0.345462523116388E+000
 0.345581908546226E+000
 0.345701582721040E+000
 0.345821571804438E+000
 0.345941902241417E+000
 0.346062600746818E+000
 0.346183694382817E+000
 0.346305210541969E+000
 0.346427176973022E+000
 0.346549621836800E+000
 0.346672573706118E+000
 0.346796061609853E+000
 0.346920115053365E+000
 0.347044764068864E+000
 0.347170039185905E+000
 0.347295971540448E+000
 0.347422592868327E+000
 0.347549935520542E+000
 0.347678032547143E+000
 0.347806917696690E+000
 0.347936625452051E+000
 0.348067191125640E+000
 0.348198650838901E+000
 0.348331041546085E+000
 0.348464401176385E+000
 0.348598768586135E+000
 0.348734183677308E+000
 0.348870687411252E+000
 0.349008321828264E+000
 0.349147130213820E+000
 0.349287157027512E+000
 0.349428448053982E+000
 0.349571050464303E+000
 0.349715012842167E+000
 0.349860385273055E+000
 0.350007219306010E+000
 0.350155568472697E+000
 0.350305487750407E+000
 0.350457033989292E+000
 0.350610266193056E+000
 0.350765245091786E+000
 0.350922033829191E+000
 0.351080697295391E+000
 0.351241303561823E+000
 0.351403922560294E+000
 0.351568626979593E+000
 0.351735492358874E+000
 0.351904597049265E+000
 0.352076022619886E+000
 0.352249853638070E+000
 0.352426178271601E+000
 0.352605088256459E+000
 0.352786679062832E+000
 0.352971050284717E+000
 0.353158305768103E+000
 0.353348553776151E+000
 0.353541907369902E+000
 0.353738484657616E+000
 0.353938409093661E+000
 0.354141809785586E+000
 0.354348821848089E+000
 0.354559586798155E+000
 0.354774252926927E+000
 0.354992975683921E+000
 0.355215918220803E+000
 0.355443251850755E+000
 0.355675156543769E+000
 0.355911821589819E+000
 0.356153446062230E+000
 0.356400239702947E+000
 0.356652423470379E+000
 0.356910230363330E+000
 0.357173906383984E+000
 0.357443711245879E+000
 0.357719919650547E+000
 0.358002822114265E+000
 0.358292726342959E+000
 0.358589958461456E+000
 0.358894864421163E+000
 0.359207811577221E+000
 0.359529190388580E+000
 0.359859416227078E+000
 0.360198931483282E+000
 0.360548207811735E+000
 0.360907748612287E+000
 0.361278091605245E+000
 0.361659812021559E+000
 0.362053526006532E+000
 0.362459894143661E+000
 0.362879625780851E+000
 0.363313483115842E+000
 0.363762286981630E+000
 0.364226922221689E+000
 0.364708343865281E+000
 0.365207584647206E+000
 0.365725763048057E+000
 0.366264092058829E+000
 0.366823889828759E+000
 0.367406590964317E+000
 0.368013760125426E+000
 0.368647106673821E+000
 0.369308502232938E+000
 0.370000000000000E+000
 0.371699999999987E+000
 0.373399999999986E+000
 0.375099999999984E+000
 0.376799999999982E+000
 0.378499999999981E+000
 0.380199999999979E+000
 0.381899999999977E+000
 0.383599999999976E+000
 0.385299999999974E+000
 0.386999999999972E+000
 0.388699999999971E+000
 0.390399999999969E+000
 0.392099999999967E+000
 0.393799999999966E+000
 0.395499999999964E+000
 0.397199999999962E+000
 0.398899999999961E+000
 0.400599999999959E+000
 0.402299999999946E+000
 0.403999999999934E+000
 0.405699999999932E+000
 0.407399999999927E+000
 0.409099999999910E+000
 0.410799999999905E+000
 0.412499999999904E+000
 0.414199999999891E+000
 0.415899999999879E+000
 0.417599999999877E+000
 0.419299999999875E+000
 0.420999999999873E+000
 0.422699999999872E+000
 0.424399999999870E+000
 0.426099999999868E+000
 0.427799999999881E+000
 0.429499999999887E+000
 0.431199999999885E+000
 0.432899999999890E+000
 0.434599999999892E+000
 0.436299999999880E+000
 0.437999999999878E+000
 0.439699999999873E+000
 0.441399999999856E+000
 0.443099999999852E+000
 0.444799999999850E+000
 0.446499999999838E+000
 0.448199999999840E+000
 0.449899999999845E+000
 0.451599999999843E+000
 0.453299999999849E+000
 0.454999999999862E+000
 0.456699999999860E+000
 0.458399999999858E+000
 0.460099999999871E+000
 0.461799999999876E+000
 0.463499999999875E+000
 0.465199999999880E+000
 0.466899999999893E+000
 0.468599999999891E+000
 0.470299999999890E+000
 0.471999999999902E+000
 0.473699999999908E+000
 0.475399999999906E+000
 0.477099999999911E+000
 0.478799999999925E+000
 0.480499999999923E+000
 0.482199999999921E+000
 0.483899999999930E+000
 0.485599999999929E+000
 0.487299999999938E+000
 0.488999999999936E+000
 0.490699999999935E+000
 0.492399999999948E+000
 0.494099999999953E+000
 0.495799999999962E+000
 0.497499999999960E+000
 0.499199999999969E+000
 0.500899999999946E+000
 0.502599999999934E+000
 0.504299999999954E+000
 0.505999999999952E+000
 0.507699999999972E+000
 0.509399999999970E+000
 0.511099999999968E+000
 0.512799999999967E+000
 0.514499999999965E+000
 0.516199999999985E+000
 0.517899999999983E+000
 0.519600000000003E+000
 0.521300000000002E+000
 0.523000000000000E+000
-0.100000000000000E-001
-0.988095238095189E-002
-0.976190476190380E-002
-0.964285714285640E-002
-0.952380952380933E-002
-0.940476190476226E-002
-0.928571428571518E-002
-0.916666666666811E-002
-0.904761904762103E-002
-0.892857142857396E-002
-0.880952380952688E-002
-0.869047619047981E-002
-0.857142857143274E-002
-0.845238095238566E-002
-0.833333333333847E-002
-0.821428571429088E-002
-0.809523809524329E-002
-0.797619047619570E-002
-0.785714285714811E-002
-0.773809523810036E-002
-0.761904761905276E-002
-0.750000000000534E-002
-0.738095238095826E-002
-0.726190476191119E-002
-0.714285714286412E-002
-0.702380952381704E-002
-0.690476190476997E-002
-0.678571428572289E-002
-0.666666666667582E-002
-0.654761904762875E-002
-0.642857142858155E-002
-0.630952380953401E-002
-0.619047619048642E-002
-0.607142857143887E-002
-0.595238095239168E-002
-0.583333333334460E-002
-0.571428571429753E-002
-0.559523809525016E-002
-0.547619047620257E-002
-0.535714285715498E-002
-0.523809523810755E-002
-0.511904761906047E-002
-0.500000000001322E-002
-0.488095238096528E-002
-0.476190476191718E-002
-0.464285714286916E-002
-0.452380952382150E-002
-0.440476190477391E-002
-0.428571428572610E-002
-0.416666666667800E-002
-0.404761904762989E-002
-0.392857142858178E-002
-0.380952380953367E-002
-0.369047619048557E-002
-0.357142857143773E-002
-0.345238095239014E-002
-0.333333333334249E-002
-0.321428571429449E-002
-0.309523809524639E-002
-0.297619047619828E-002
-0.285714285715017E-002
-0.273809523810206E-002
-0.261904761905429E-002
-0.250000000000670E-002
-0.238095238095911E-002
-0.226190476191133E-002
-0.214285714286322E-002
-0.202380952381512E-002
-0.190476190476701E-002
-0.178571428571890E-002
-0.166666666667079E-002
-0.154761904762268E-002
-0.142857142857458E-002
-0.130952380952647E-002
-0.119047619047836E-002
-0.107142857143079E-002
-0.952380952383714E-003
-0.833333333336527E-003
-0.714285714288644E-003
-0.595238095240537E-003
-0.476190476192431E-003
-0.357142857144322E-003
-0.238095238096215E-003
-0.119047619048107E-003
 0.000000000000000E+000
 0.735288888887442E-003
 0.147057777777489E-002
 0.220586666666234E-002
 0.294115555554982E-002
 0.367644444443732E-002
 0.441173333332483E-002
 0.514702222221233E-002
 0.588231111109969E-002
 0.661759999998701E-002
 0.735288888887418E-002
 0.808817777776134E-002
 0.882346666664851E-002
 0.955875555553587E-002
 0.102940444444233E-001
 0.110293333333110E-001
 0.117646222221986E-001
 0.124999111110863E-001
 0.132351999999739E-001
 0.139704888888616E-001
 0.147057777777492E-001
 0.154410666666368E-001
 0.161763555555243E-001
 0.169116444444118E-001
 0.176469333332995E-001
 0.183822222221871E-001
 0.191175111110748E-001
 0.198527999999621E-001
 0.205880888888494E-001
 0.213233777777367E-001
 0.220586666666239E-001
 0.227939555555108E-001
 0.235292444443975E-001
 0.242645333332840E-001
 0.249998222221705E-001
 0.257351111110570E-001
 0.264703999999435E-001
 0.272056888888300E-001
 0.279409777777169E-001
 0.286762666666037E-001
 0.294115555554906E-001
 0.301468444443775E-001
 0.308821333332644E-001
 0.316174222221512E-001
 0.323527111110381E-001
 0.330879999999246E-001
 0.338232888888111E-001
 0.345585777776976E-001
 0.352938666665841E-001
 0.360291555554706E-001
 0.367644444443570E-001
 0.374997333332436E-001
 0.382350222221308E-001
 0.389703111110181E-001
 0.397055999999053E-001
 0.404408888887922E-001
 0.411761777776787E-001
 0.419114666665652E-001
 0.426467555554517E-001
 0.433820444443389E-001
 0.441173333332262E-001
 0.448526222221135E-001
 0.455879111110004E-001
 0.463231999998868E-001
 0.470584888887733E-001
 0.477937777776598E-001
 0.485290666665463E-001
 0.492643555554328E-001
 0.499996444443193E-001
 0.507349333332058E-001
 0.514702222220923E-001
 0.522055111109793E-001
 0.529407999998666E-001
 0.536760888887538E-001
 0.544113777776410E-001
 0.551466666665275E-001
 0.558819555554139E-001
 0.566172444443004E-001
 0.573525333331869E-001
 0.580878222220734E-001
 0.588231111109599E-001
 0.595583999998464E-001
 0.602936888887329E-001
 0.610289777776197E-001
 0.617642666665069E-001
 0.624995555553942E-001
 0.632348444442815E-001
 0.639701333331694E-001
 0.647054222220574E-001
 0.654407111109455E-001
 0.661759999998329E-001
 0.669112888887194E-001
 0.676465777776059E-001
 0.683818666664924E-001
 0.691171555553789E-001
 0.698524444442654E-001
 0.705877333331519E-001
 0.713230222220384E-001
 0.720583111109249E-001
 0.727935999998122E-001
 0.735288888887003E-001
 0.742641777775883E-001
 0.749994666664762E-001
 0.757347555553627E-001
 0.764700444442492E-001
 0.772053333331357E-001
 0.779406222220222E-001
 0.786759111109087E-001
 0.794111999997952E-001
 0.801464888886817E-001
 0.808817777775682E-001
 0.816170666664551E-001
 0.823523555553431E-001
 0.830876444442319E-001
 0.838229333331215E-001
 0.845582222220111E-001
 0.852935111109006E-001
 0.860287999997917E-001
 0.867640888886832E-001
 0.874993777775759E-001
 0.882346666664678E-001
 0.889699555553589E-001
 0.897052444442489E-001
 0.904405333331385E-001
 0.911758222220281E-001
 0.919111111109177E-001
 0.926463999998072E-001
 0.933816888886968E-001
 0.941169777775864E-001
 0.948522666664770E-001
 0.955875555553681E-001
 0.963228444442607E-001
 0.970581333331533E-001
 0.977934222220460E-001
 0.985287111109380E-001
 0.992639999998291E-001
 0.999992888887193E-001
 0.100734577777609E+000
 0.101469866666498E+000
 0.102205155555388E+000
 0.102940444444278E+000
 0.103675733333168E+000
 0.104411022222059E+000
 0.105146311110951E+000
 0.105881599999844E+000
 0.106616888888736E+000
 0.107352177777629E+000
 0.108087466666520E+000
 0.108822755555410E+000
 0.109558044444300E+000
 0.110293333333190E+000
 0.111028622222079E+000
 0.111763911110969E+000
 0.112499199999858E+000
 0.113234488888749E+000
 0.113969777777641E+000
 0.114705066666534E+000
 0.115440355555427E+000
 0.116175644444319E+000
 0.116910933333211E+000
 0.117646222222102E+000
 0.118381511110991E+000
 0.119116799999881E+000
 0.119852088888770E+000
 0.120587377777660E+000
 0.121322666666550E+000
 0.122057955555440E+000
 0.122793244444331E+000
 0.123528533333224E+000
 0.124263822222116E+000
 0.124999111111007E+000
 0.125734399999898E+000
 0.126469688888787E+000
 0.127204977777677E+000
 0.127940266666566E+000
 0.128675555555456E+000
 0.129410844444346E+000
 0.130146133333235E+000
 0.130881422222125E+000
 0.131616711111014E+000
 0.132351999999904E+000
 0.133087288888794E+000
 0.133822577777683E+000
 0.134557866666573E+000
 0.135293155555462E+000
 0.136028444444353E+000
 0.136763733333246E+000
 0.137499022222141E+000
 0.138234311111036E+000
 0.138969599999932E+000
 0.139704888888827E+000
 0.140440177777720E+000
 0.141175466666611E+000
 0.141910755555501E+000
 0.142646044444391E+000
 0.143381333333280E+000
 0.144116622222170E+000
 0.144851911111059E+000
 0.145587199999949E+000
 0.146322488888838E+000
 0.147057777777728E+000
 0.147793066666618E+000
 0.148528355555507E+000
 0.149263644444397E+000
 0.149998933333286E+000
 0.150734222222176E+000
 0.151469511111065E+000
 0.152204799999955E+000
 0.152940088888845E+000
 0.153675377777734E+000
 0.154410666666626E+000
 0.155145955555519E+000
 0.155881244444415E+000
 0.156616533333311E+000
 0.157351822222206E+000
 0.158087111111100E+000
 0.158822399999993E+000
 0.159557688888883E+000
 0.160292977777773E+000
 0.161028266666663E+000
 0.161763555555552E+000
 0.162498844444442E+000
 0.163234133333331E+000
 0.163969422222221E+000
 0.164704711111110E+000
 0.165440000000000E+000
 0.166119999999999E+000
 0.166799999999998E+000
 0.167479999999996E+000
 0.168159999999995E+000
 0.168839999999994E+000
 0.169519999999991E+000
 0.170199999999987E+000
 0.170879999999982E+000
 0.171559999999979E+000
 0.172239999999978E+000
 0.172919999999977E+000
 0.173599999999975E+000
 0.174279999999974E+000
 0.174959999999973E+000
 0.175639999999972E+000
 0.176319999999971E+000
 0.176999999999969E+000
 0.177679999999968E+000
 0.178359999999967E+000
 0.179039999999966E+000
 0.179719999999965E+000
 0.180399999999964E+000
 0.181079999999962E+000
 0.181759999999961E+000
 0.182439999999960E+000
 0.183119999999959E+000
 0.183799999999958E+000
 0.184479999999957E+000
 0.185159999999956E+000
 0.185839999999954E+000
 0.186519999999950E+000
 0.187199999999946E+000
 0.187879999999941E+000
 0.188559999999939E+000
 0.189239999999938E+000
 0.189919999999937E+000
 0.190599999999935E+000
 0.191279999999934E+000
 0.191959999999933E+000
 0.192639999999932E+000
 0.193319999999931E+000
 0.193999999999930E+000
 0.194679999999929E+000
 0.195359999999928E+000
 0.196039999999926E+000
 0.196719999999925E+000
 0.197399999999924E+000
 0.198079999999923E+000
 0.198759999999922E+000
 0.199439999999918E+000
 0.200119999999914E+000
 0.200799999999910E+000
 0.201479999999905E+000
 0.202159999999901E+000
 0.202839999999897E+000
 0.203519999999893E+000
 0.204199999999891E+000
 0.204879999999890E+000
 0.205559999999888E+000
 0.206239999999887E+000
 0.206919999999886E+000
 0.207599999999885E+000
 0.208279999999884E+000
 0.208959999999883E+000
 0.209639999999882E+000
 0.210319999999880E+000
 0.210999999999879E+000
 0.211679999999878E+000
 0.212359999999876E+000
 0.213039999999871E+000
 0.213719999999867E+000
 0.214399999999863E+000
 0.215079999999858E+000
 0.215759999999854E+000
 0.216439999999850E+000
 0.217119999999847E+000
 0.217799999999846E+000
 0.218479999999845E+000
 0.219159999999844E+000
 0.219839999999842E+000
 0.220519999999841E+000