 VARIABLES ="x" "y" "z"
 ZONE  T = Block1, I=96, J=101, K=2, DATAPACKING=BLOCK, VARLOCATION=([1-3]=NODAL), SOLUTIONTIME=0.100000000000000E+002, STRANDID = 0
 0.000000000000000E+000
 0.882176871693207E-002
 0.170664124009132E-001
 0.247716868759924E-001
 0.319728779888430E-001
 0.387029631277310E-001
 0.449927623009993E-001
 0.508710793067836E-001
 0.563648335264109E-001
 0.614991832732673E-001
 0.662976409682736E-001
 0.707821808598336E-001
 0.749733396445644E-001
 0.788903104878049E-001
 0.825510309258672E-001
 0.859722649715785E-001
 0.891696799609002E-001
 0.921579182865540E-001
 0.949506643880014E-001
 0.975607074536804E-001
 0.100000000000000E+000
 0.102886666666660E+000
 0.105773333333320E+000
 0.108659999999982E+000
 0.111546666666639E+000
 0.114433333333292E+000
 0.117319999999945E+000
 0.120206666666598E+000
 0.123093333333251E+000
 0.125979999999908E+000
 0.128866666666569E+000
 0.131753333333230E+000
 0.134639999999887E+000
 0.137526666666545E+000
 0.140413333333204E+000
 0.143299999999866E+000
 0.146186666666544E+000
 0.149073333333221E+000
 0.151959999999896E+000
 0.154846666666571E+000
 0.157733333333249E+000
 0.160619999999929E+000
 0.163506666666610E+000
 0.166393333333280E+000
 0.169279999999950E+000
 0.172166666666621E+000
 0.175053333333291E+000
 0.177939999999966E+000
 0.180826666666643E+000
 0.183713333333321E+000
 0.186600000000000E+000
 0.189568312092576E+000
 0.192595990402814E+000
 0.195684222277981E+000
 0.198834218788458E+000
 0.202047215235354E+000
 0.205324471617426E+000
 0.208667273113425E+000
 0.212076930650720E+000
 0.215554781335579E+000
 0.219102189027742E+000
 0.222720544877250E+000
 0.226411267846931E+000
 0.230175805291630E+000
 0.234015633494034E+000
 0.237932258256287E+000
 0.241927215513635E+000
 0.246002071910671E+000
 0.250158425430255E+000
 0.254397906018955E+000
 0.258722176202618E+000
 0.263132931793077E+000
 0.267631902494434E+000
 0.272220852597124E+000
 0.276901581701720E+000
 0.281675925405934E+000
 0.286545755989161E+000
 0.291512983186704E+000
 0.296579554933873E+000
 0.301747458104987E+000
 0.307018719348544E+000
 0.312395405827102E+000
 0.317879626018833E+000
 0.323473530615690E+000
 0.329179313298841E+000
 0.334999211637979E+000
 0.340935507967969E+000
 0.346990530200111E+000
 0.353166652860940E+000
 0.359466297980778E+000
 0.365891936015627E+000
 0.372446086809913E+000
 0.379131320626339E+000
 0.385950259125648E+000
 0.392905576380663E+000
 0.400000000000000E+000
 0.000000000000000E+000
 0.882176871728888E-002
 0.170664124011400E-001
 0.247716868761048E-001
 0.319728779888549E-001
 0.387029631276552E-001
 0.449927623008471E-001
 0.508710793065652E-001
 0.563648335261352E-001
 0.614991832729427E-001
 0.662976409679077E-001
 0.707821808594331E-001
 0.749733396441356E-001
 0.788903104873531E-001
 0.825510309253972E-001
 0.859722649710947E-001
 0.891696799604063E-001
 0.921579182860535E-001
 0.949506643874973E-001
 0.975607074531752E-001
 0.100000000000000E+000
 0.102886666666661E+000
 0.105773333333321E+000
 0.108659999999982E+000
 0.111546666666640E+000
 0.114433333333293E+000
 0.117319999999946E+000
 0.120206666666599E+000
 0.123093333333253E+000
 0.125979999999910E+000
 0.128866666666571E+000
 0.131753333333232E+000
 0.134639999999889E+000
 0.137526666666547E+000
 0.140413333333207E+000
 0.143299999999868E+000
 0.146186666666546E+000
 0.149073333333223E+000
 0.151959999999898E+000
 0.154846666666573E+000
 0.157733333333250E+000
 0.160619999999930E+000
 0.163506666666611E+000
 0.166393333333281E+000
 0.169279999999951E+000
 0.172166666666621E+000
 0.175053333333291E+000
 0.177939999999966E+000
 0.180826666666643E+000
 0.183713333333321E+000
 0.186600000000000E+000
 0.189568312092265E+000
 0.192595990402507E+000
 0.195684222277679E+000
 0.198834218788160E+000
 0.202047215235061E+000
 0.205324471617138E+000
 0.208667273113143E+000
 0.212076930650444E+000
 0.215554781335310E+000
 0.219102189027479E+000
 0.222720544876995E+000
 0.226411267846683E+000
 0.230175805291389E+000
 0.234015633493802E+000
 0.237932258256064E+000
 0.241927215513422E+000
 0.246002071910466E+000
 0.250158425430061E+000
 0.254397906018772E+000
 0.258722176202446E+000
 0.263132931792917E+000
 0.267631902494286E+000
 0.272220852596988E+000
 0.276901581701597E+000
 0.281675925405825E+000
 0.286545755989068E+000
 0.291512983186625E+000
 0.296579554933809E+000
 0.301747458104940E+000
 0.307018719348513E+000
 0.312395405827089E+000
 0.317879626018838E+000
 0.323473530615713E+000
 0.329179313298884E+000
 0.334999211638043E+000
 0.340935507968054E+000
 0.346990530200217E+000
 0.353166652861069E+000
 0.359466297980930E+000
 0.365891936015804E+000
 0.372446086810115E+000
 0.379131320626569E+000
 0.385950259125905E+000
 0.392905576380948E+000
 0.400000000000000E+000
 0.000000000000000E+000
 0.882176871764570E-002
 0.170664124013669E-001
 0.247716868762171E-001
 0.319728779888668E-001
 0.387029631275793E-001
 0.449927623006949E-001
 0.508710793063468E-001
 0.563648335258595E-001
 0.614991832726181E-001
 0.662976409675418E-001
 0.707821808590327E-001
 0.749733396437067E-001
 0.788903104869012E-001
 0.825510309249272E-001
 0.859722649706109E-001
 0.891696799599125E-001
 0.921579182855530E-001
 0.949506643869931E-001
 0.975607074526701E-001
 0.100000000000000E+000
 0.102886666666661E+000
 0.105773333333321E+000
 0.108659999999983E+000
 0.111546666666641E+000
 0.114433333333294E+000
 0.117319999999947E+000
 0.120206666666601E+000
 0.123093333333255E+000
 0.125979999999912E+000
 0.128866666666573E+000
 0.131753333333234E+000
 0.134639999999891E+000
 0.137526666666550E+000
 0.140413333333209E+000
 0.143299999999871E+000
 0.146186666666549E+000
 0.149073333333225E+000
 0.151959999999900E+000
 0.154846666666575E+000
 0.157733333333252E+000
 0.160619999999931E+000
 0.163506666666612E+000
 0.166393333333282E+000
 0.169279999999952E+000
 0.172166666666622E+000
 0.175053333333292E+000
 0.177939999999966E+000
 0.180826666666644E+000
 0.183713333333322E+000
 0.186600000000000E+000
 0.189568312091954E+000
 0.192595990402199E+000
 0.195684222277376E+000
 0.198834218787862E+000
 0.202047215234768E+000
 0.205324471616850E+000
 0.208667273112861E+000
 0.212076930650168E+000
 0.215554781335040E+000
 0.219102189027217E+000
 0.222720544876739E+000
 0.226411267846435E+000
 0.230175805291149E+000
 0.234015633493571E+000
 0.237932258255841E+000
 0.241927215513208E+000
 0.246002071910262E+000
 0.250158425429867E+000
 0.254397906018588E+000
 0.258722176202274E+000
 0.263132931792756E+000
 0.267631902494137E+000
 0.272220852596852E+000
 0.276901581701474E+000
 0.281675925405717E+000
 0.286545755988974E+000
 0.291512983186546E+000
 0.296579554933746E+000
 0.301747458104893E+000
 0.307018719348482E+000
 0.312395405827075E+000
 0.317879626018842E+000
 0.323473530615737E+000
 0.329179313298926E+000
 0.334999211638106E+000
 0.340935507968138E+000
 0.346990530200323E+000
 0.353166652861198E+000
 0.359466297981083E+000
 0.365891936015981E+000
 0.372446086810318E+000
 0.379131320626798E+000
 0.385950259126162E+000
 0.392905576381233E+000
 0.400000000000000E+000
 0.000000000000000E+000
 0.882176871800251E-002
 0.170664124015937E-001
 0.247716868763295E-001
 0.319728779888787E-001
 0.387029631275034E-001
 0.449927623005427E-001
 0.508710793061284E-001
 0.563648335255837E-001
 0.614991832722934E-001
 0.662976409671758E-001
 0.707821808586322E-001
 0.749733396432778E-001
 0.788903104864494E-001
 0.825510309244573E-001
 0.859722649701270E-001
 0.891696799594186E-001
 0.921579182850525E-001
 0.949506643864890E-001
 0.975607074521650E-001
 0.100000000000000E+000
 0.102886666666661E+000
 0.105773333333322E+000
 0.108659999999983E+000
 0.111546666666642E+000
 0.114433333333295E+000
 0.117319999999948E+000
 0.120206666666602E+000
 0.123093333333256E+000
 0.125979999999913E+000
 0.128866666666575E+000
 0.131753333333236E+000
 0.134639999999894E+000
 0.137526666666552E+000
 0.140413333333211E+000
 0.143299999999873E+000
 0.146186666666551E+000
 0.149073333333227E+000
 0.151959999999902E+000
 0.154846666666577E+000
 0.157733333333254E+000
 0.160619999999933E+000
 0.163506666666613E+000
 0.166393333333282E+000
 0.169279999999952E+000
 0.172166666666622E+000
 0.175053333333292E+000
 0.177939999999967E+000
 0.180826666666644E+000
 0.183713333333322E+000
 0.186600000000000E+000
 0.189568312091643E+000
 0.192595990401892E+000
 0.195684222277073E+000
 0.198834218787564E+000
 0.202047215234475E+000
 0.205324471616563E+000
 0.208667273112579E+000
 0.212076930649892E+000
 0.215554781334771E+000
 0.219102189026954E+000
 0.222720544876484E+000
 0.226411267846187E+000
 0.230175805290909E+000
 0.234015633493339E+000
 0.237932258255618E+000
 0.241927215512994E+000
 0.246002071910058E+000
 0.250158425429673E+000
 0.254397906018405E+000
 0.258722176202102E+000
 0.263132931792596E+000
 0.267631902493989E+000
 0.272220852596717E+000
 0.276901581701352E+000
 0.281675925405608E+000
 0.286545755988879E+000
 0.291512983186467E+000
 0.296579554933682E+000
 0.301747458104845E+000
 0.307018719348451E+000
 0.312395405827062E+000
 0.317879626018847E+000
 0.323473530615760E+000
 0.329179313298969E+000
 0.334999211638169E+000
 0.340935507968222E+000
 0.346990530200430E+000
 0.353166652861327E+000
 0.359466297981236E+000
 0.365891936016159E+000
 0.372446086810521E+000
 0.379131320627027E+000
 0.385950259126419E+000
 0.392905576381518E+000
 0.400000000000000E+000
 0.000000000000000E+000
 0.882176871835933E-002
 0.170664124018205E-001
 0.247716868764419E-001
 0.319728779888906E-001
 0.387029631274275E-001
 0.449927623003904E-001
 0.508710793059101E-001
 0.563648335253080E-001
 0.614991832719688E-001
 0.662976409668098E-001
 0.707821808582318E-001
 0.749733396428490E-001
 0.788903104859976E-001
 0.825510309239873E-001
 0.859722649696432E-001
 0.891696799589248E-001
 0.921579182845520E-001
 0.949506643859848E-001
 0.975607074516598E-001
 0.100000000000000E+000
 0.102886666666661E+000
 0.105773333333322E+000
 0.108659999999984E+000
 0.111546666666642E+000
 0.114433333333296E+000
 0.117319999999950E+000
 0.120206666666604E+000
 0.123093333333258E+000
 0.125979999999915E+000
 0.128866666666577E+000
 0.131753333333238E+000
 0.134639999999896E+000
 0.137526666666554E+000
 0.140413333333214E+000
 0.143299999999876E+000
 0.146186666666554E+000
 0.149073333333229E+000
 0.151959999999904E+000
 0.154846666666578E+000
 0.157733333333255E+000
 0.160619999999934E+000
 0.163506666666614E+000
 0.166393333333283E+000
 0.169279999999953E+000
 0.172166666666623E+000
 0.175053333333293E+000
 0.177939999999967E+000
 0.180826666666644E+000
 0.183713333333322E+000
 0.186600000000000E+000
 0.189568312091331E+000
 0.192595990401585E+000
 0.195684222276771E+000
 0.198834218787266E+000
 0.202047215234182E+000
 0.205324471616275E+000
 0.208667273112297E+000
 0.212076930649616E+000
 0.215554781334501E+000
 0.219102189026692E+000
 0.222720544876228E+000
 0.226411267845940E+000
 0.230175805290669E+000
 0.234015633493107E+000
 0.237932258255395E+000
 0.241927215512780E+000
 0.246002071909854E+000
 0.250158425429479E+000
 0.254397906018222E+000
 0.258722176201930E+000
 0.263132931792435E+000
 0.267631902493841E+000
 0.272220852596581E+000
 0.276901581701229E+000
 0.281675925405499E+000
 0.286545755988786E+000
 0.291512983186388E+000
 0.296579554933618E+000
 0.301747458104798E+000
 0.307018719348421E+000
 0.312395405827048E+000
 0.317879626018852E+000
 0.323473530615783E+000
 0.329179313299012E+000
 0.334999211638232E+000
 0.340935507968307E+000
 0.346990530200536E+000
 0.353166652861456E+000
 0.359466297981389E+000
 0.365891936016336E+000
 0.372446086810724E+000
 0.379131320627256E+000
 0.385950259126675E+000
 0.392905576381804E+000
 0.400000000000000E+000
 0.000000000000000E+000
 0.882176871871614E-002
 0.170664124020474E-001
 0.247716868765543E-001
 0.319728779889025E-001
 0.387029631273517E-001
 0.449927623002382E-001
 0.508710793056917E-001
 0.563648335250323E-001
 0.614991832716442E-001
 0.662976409664439E-001
 0.707821808578313E-001
 0.749733396424201E-001
 0.788903104855457E-001
 0.825510309235173E-001
 0.859722649691594E-001
 0.891696799584310E-001
 0.921579182840515E-001
 0.949506643854807E-001
 0.975607074511547E-001
 0.100000000000000E+000
 0.102886666666661E+000
 0.105773333333322E+000
 0.108659999999984E+000
 0.111546666666643E+000
 0.114433333333297E+000
 0.117319999999951E+000
 0.120206666666605E+000
 0.123093333333260E+000
 0.125979999999917E+000
 0.128866666666579E+000
 0.131753333333240E+000
 0.134639999999898E+000
 0.137526666666556E+000
 0.140413333333216E+000
 0.143299999999878E+000
 0.146186666666556E+000
 0.149073333333232E+000
 0.151959999999906E+000
 0.154846666666580E+000
 0.157733333333257E+000
 0.160619999999935E+000
 0.163506666666615E+000
 0.166393333333284E+000
 0.169279999999954E+000
 0.172166666666624E+000
 0.175053333333293E+000
 0.177939999999968E+000
 0.180826666666644E+000
 0.183713333333322E+000
 0.186600000000000E+000
 0.189568312091021E+000
 0.192595990401278E+000
 0.195684222276468E+000
 0.198834218786968E+000
 0.202047215233889E+000
 0.205324471615987E+000
 0.208667273112015E+000
 0.212076930649340E+000
 0.215554781334232E+000
 0.219102189026429E+000
 0.222720544875973E+000
 0.226411267845691E+000
 0.230175805290429E+000
 0.234015633492875E+000
 0.237932258255172E+000
 0.241927215512567E+000
 0.246002071909650E+000
 0.250158425429285E+000
 0.254397906018038E+000
 0.258722176201758E+000
 0.263132931792275E+000
 0.267631902493692E+000
 0.272220852596445E+000
 0.276901581701107E+000
 0.281675925405391E+000
 0.286545755988692E+000
 0.291512983186309E+000
 0.296579554933555E+000
 0.301747458104750E+000
 0.307018719348390E+000
 0.312395405827035E+000
 0.317879626018856E+000
 0.323473530615807E+000
 0.329179313299055E+000
 0.334999211638295E+000
 0.340935507968391E+000
 0.346990530200643E+000
 0.353166652861585E+000
 0.359466297981541E+000
 0.365891936016513E+000
 0.372446086810927E+000
 0.379131320627486E+000
 0.385950259126932E+000
 0.392905576382089E+000
 0.400000000000000E+000
 0.000000000000000E+000
 0.882176871907296E-002
 0.170664124022742E-001
 0.247716868766667E-001
 0.319728779889144E-001
 0.387029631272758E-001
 0.449927623000860E-001
 0.508710793054733E-001
 0.563648335247565E-001
 0.614991832713196E-001
 0.662976409660780E-001
 0.707821808574309E-001
 0.749733396419913E-001
 0.788903104850939E-001
 0.825510309230473E-001
 0.859722649686755E-001
 0.891696799579371E-001
 0.921579182835510E-001
 0.949506643849766E-001
 0.975607074506495E-001
 0.100000000000000E+000
 0.102886666666661E+000
 0.105773333333323E+000
 0.108659999999985E+000
 0.111546666666644E+000
 0.114433333333298E+000
 0.117319999999952E+000
 0.120206666666607E+000
 0.123093333333261E+000
 0.125979999999919E+000
 0.128866666666581E+000
 0.131753333333242E+000
 0.134639999999900E+000
 0.137526666666558E+000
 0.140413333333219E+000
 0.143299999999881E+000
 0.146186666666558E+000
 0.149073333333234E+000
 0.151959999999908E+000
 0.154846666666582E+000
 0.157733333333258E+000
 0.160619999999936E+000
 0.163506666666616E+000
 0.166393333333285E+000
 0.169279999999954E+000
 0.172166666666624E+000
 0.175053333333293E+000
 0.177939999999968E+000
 0.180826666666645E+000
 0.183713333333322E+000
 0.186600000000000E+000
 0.189568312090709E+000
 0.192595990400971E+000
 0.195684222276165E+000
 0.198834218786670E+000
 0.202047215233596E+000
 0.205324471615700E+000
 0.208667273111733E+000
 0.212076930649065E+000
 0.215554781333963E+000
 0.219102189026166E+000
 0.222720544875717E+000
 0.226411267845444E+000
 0.230175805290189E+000
 0.234015633492644E+000
 0.237932258254949E+000
 0.241927215512353E+000
 0.246002071909446E+000
 0.250158425429091E+000
 0.254397906017855E+000
 0.258722176201585E+000
 0.263132931792114E+000
 0.267631902493544E+000
 0.272220852596310E+000
 0.276901581700984E+000
 0.281675925405282E+000
 0.286545755988598E+000
 0.291512983186230E+000
 0.296579554933492E+000
 0.301747458104703E+000
 0.307018719348359E+000
 0.312395405827021E+000
 0.317879626018861E+000
 0.323473530615831E+000
 0.329179313299098E+000
 0.334999211638359E+000
 0.340935507968476E+000
 0.346990530200749E+000
 0.353166652861714E+000
 0.359466297981694E+000
 0.365891936016691E+000
 0.372446086811129E+000
 0.379131320627715E+000
 0.385950259127189E+000
 0.392905576382374E+000
 0.400000000000000E+000
 0.000000000000000E+000
 0.882176871942977E-002
 0.170664124025010E-001
 0.247716868767791E-001
 0.319728779889263E-001
 0.387029631271999E-001
 0.449927622999337E-001
 0.508710793052549E-001
 0.563648335244808E-001
 0.614991832709950E-001
 0.662976409657121E-001
 0.707821808570304E-001
 0.749733396415624E-001
 0.788903104846421E-001
 0.825510309225773E-001
 0.859722649681917E-001
 0.891696799574433E-001
 0.921579182830505E-001
 0.949506643844724E-001
 0.975607074501444E-001
 0.100000000000000E+000
 0.102886666666662E+000
 0.105773333333323E+000
 0.108659999999985E+000
 0.111546666666645E+000
 0.114433333333299E+000
 0.117319999999953E+000
 0.120206666666608E+000
 0.123093333333263E+000
 0.125979999999921E+000
 0.128866666666583E+000
 0.131753333333244E+000
 0.134639999999902E+000
 0.137526666666560E+000
 0.140413333333221E+000
 0.143299999999883E+000
 0.146186666666561E+000
 0.149073333333236E+000
 0.151959999999910E+000
 0.154846666666584E+000
 0.157733333333260E+000
 0.160619999999937E+000
 0.163506666666617E+000
 0.166393333333286E+000
 0.169279999999955E+000
 0.172166666666625E+000
 0.175053333333294E+000
 0.177939999999968E+000
 0.180826666666645E+000
 0.183713333333322E+000
 0.186600000000000E+000
 0.189568312090398E+000
 0.192595990400664E+000
 0.195684222275863E+000
 0.198834218786372E+000
 0.202047215233303E+000
 0.205324471615412E+000
 0.208667273111452E+000
 0.212076930648789E+000
 0.215554781333693E+000
 0.219102189025904E+000
 0.222720544875462E+000
 0.226411267845196E+000
 0.230175805289949E+000
 0.234015633492412E+000
 0.237932258254726E+000
 0.241927215512139E+000
 0.246002071909242E+000
 0.250158425428897E+000
 0.254397906017671E+000
 0.258722176201413E+000
 0.263132931791954E+000
 0.267631902493395E+000
 0.272220852596174E+000
 0.276901581700862E+000
 0.281675925405174E+000
 0.286545755988504E+000
 0.291512983186152E+000
 0.296579554933428E+000
 0.301747458104655E+000
 0.307018719348329E+000
 0.312395405827007E+000
 0.317879626018865E+000
 0.323473530615854E+000
 0.329179313299141E+000
 0.334999211638422E+000
 0.340935507968560E+000
 0.346990530200856E+000
 0.353166652861843E+000
 0.359466297981847E+000
 0.365891936016868E+000
 0.372446086811332E+000
 0.379131320627944E+000
 0.385950259127445E+000
 0.392905576382659E+000
 0.400000000000000E+000
 0.000000000000000E+000
 0.882176871978659E-002
 0.170664124027279E-001
 0.247716868768915E-001
 0.319728779889382E-001
 0.387029631271240E-001
 0.449927622997815E-001
 0.508710793050365E-001
 0.563648335242051E-001
 0.614991832706703E-001
 0.662976409653461E-001
 0.707821808566300E-001
 0.749733396411336E-001
 0.788903104841902E-001
 0.825510309221073E-001
 0.859722649677079E-001
 0.891696799569494E-001
 0.921579182825500E-001
 0.949506643839683E-001
 0.975607074496392E-001
 0.100000000000000E+000
 0.102886666666662E+000
 0.105773333333323E+000
 0.108659999999986E+000
 0.111546666666645E+000
 0.114433333333300E+000
 0.117319999999954E+000
 0.120206666666609E+000
 0.123093333333265E+000
 0.125979999999923E+000
 0.128866666666585E+000
 0.131753333333246E+000
 0.134639999999904E+000
 0.137526666666563E+000
 0.140413333333223E+000
 0.143299999999886E+000
 0.146186666666563E+000
 0.149073333333238E+000
 0.151959999999913E+000
 0.154846666666586E+000
 0.157733333333261E+000
 0.160619999999939E+000
 0.163506666666618E+000
 0.166393333333287E+000
 0.169279999999956E+000
 0.172166666666625E+000
 0.175053333333294E+000
 0.177939999999969E+000
 0.180826666666645E+000
 0.183713333333322E+000
 0.186600000000000E+000
 0.189568312090087E+000
 0.192595990400357E+000
 0.195684222275560E+000
 0.198834218786074E+000
 0.202047215233010E+000
 0.205324471615125E+000
 0.208667273111170E+000
 0.212076930648513E+000
 0.215554781333424E+000
 0.219102189025641E+000
 0.222720544875207E+000
 0.226411267844948E+000
 0.230175805289708E+000
 0.234015633492180E+000
 0.237932258254504E+000
 0.241927215511926E+000
 0.246002071909038E+000
 0.250158425428703E+000
 0.254397906017488E+000
 0.258722176201241E+000
 0.263132931791793E+000
 0.267631902493246E+000
 0.272220852596038E+000
 0.276901581700739E+000
 0.281675925405065E+000
 0.286545755988410E+000
 0.291512983186072E+000
 0.296579554933365E+000
 0.301747458104608E+000
 0.307018719348298E+000
 0.312395405826994E+000
 0.317879626018870E+000
 0.323473530615877E+000
 0.329179313299184E+000
 0.334999211638485E+000
 0.340935507968645E+000
 0.346990530200962E+000
 0.353166652861972E+000
 0.359466297982000E+000
 0.365891936017045E+000
 0.372446086811535E+000
 0.379131320628173E+000
 0.385950259127702E+000
 0.392905576382944E+000
 0.400000000000000E+000
 0.000000000000000E+000
 0.882176872014340E-002
 0.170664124029547E-001
 0.247716868770039E-001
 0.319728779889501E-001
 0.387029631270481E-001
 0.449927622996293E-001
 0.508710793048182E-001
 0.563648335239294E-001
 0.614991832703457E-001
 0.662976409649802E-001
 0.707821808562295E-001
 0.749733396407047E-001
 0.788903104837383E-001
 0.825510309216373E-001
 0.859722649672240E-001
 0.891696799564556E-001
 0.921579182820495E-001
 0.949506643834641E-001
 0.975607074491341E-001
 0.100000000000000E+000
 0.102886666666662E+000
 0.105773333333323E+000
 0.108659999999986E+000
 0.111546666666646E+000
 0.114433333333301E+000
 0.117319999999956E+000
 0.120206666666611E+000
 0.123093333333267E+000
 0.125979999999925E+000
 0.128866666666587E+000
 0.131753333333248E+000
 0.134639999999906E+000
 0.137526666666565E+000
 0.140413333333225E+000
 0.143299999999888E+000
 0.146186666666566E+000
 0.149073333333241E+000
 0.151959999999915E+000
 0.154846666666588E+000
 0.157733333333263E+000
 0.160619999999940E+000
 0.163506666666619E+000
 0.166393333333287E+000
 0.169279999999957E+000
 0.172166666666626E+000
 0.175053333333295E+000
 0.177939999999969E+000
 0.180826666666646E+000
 0.183713333333323E+000
 0.186600000000000E+000
 0.189568312089776E+000
 0.192595990400050E+000
 0.195684222275257E+000
 0.198834218785776E+000
 0.202047215232717E+000
 0.205324471614837E+000
 0.208667273110888E+000
 0.212076930648237E+000
 0.215554781333155E+000
 0.219102189025378E+000
 0.222720544874951E+000
 0.226411267844700E+000
 0.230175805289468E+000
 0.234015633491948E+000
 0.237932258254280E+000
 0.241927215511712E+000
 0.246002071908834E+000
 0.250158425428509E+000
 0.254397906017305E+000
 0.258722176201069E+000
 0.263132931791633E+000
 0.267631902493098E+000
 0.272220852595903E+000
 0.276901581700617E+000
 0.281675925404957E+000
 0.286545755988316E+000
 0.291512983185994E+000
 0.296579554933301E+000
 0.301747458104561E+000
 0.307018719348267E+000
 0.312395405826980E+000
 0.317879626018875E+000
 0.323473530615901E+000
 0.329179313299227E+000
 0.334999211638549E+000
 0.340935507968729E+000
 0.346990530201068E+000
 0.353166652862101E+000
 0.359466297982152E+000
 0.365891936017222E+000
 0.372446086811738E+000
 0.379131320628402E+000
 0.385950259127959E+000
 0.392905576383229E+000
 0.400000000000000E+000
 0.000000000000000E+000
 0.882176872050022E-002
 0.170664124031816E-001
 0.247716868771162E-001
 0.319728779889620E-001
 0.387029631269723E-001
 0.449927622994771E-001
 0.508710793045998E-001
 0.563648335236537E-001
 0.614991832700211E-001
 0.662976409646142E-001
 0.707821808558291E-001
 0.749733396402759E-001
 0.788903104832865E-001
 0.825510309211673E-001
 0.859722649667402E-001
 0.891696799559618E-001
 0.921579182815490E-001
 0.949506643829600E-001
 0.975607074486289E-001
 0.100000000000000E+000
 0.102886666666662E+000
 0.105773333333324E+000
 0.108659999999987E+000
 0.111546666666647E+000
 0.114433333333302E+000
 0.117319999999957E+000
 0.120206666666612E+000
 0.123093333333268E+000
 0.125979999999927E+000
 0.128866666666589E+000
 0.131753333333250E+000
 0.134639999999908E+000
 0.137526666666567E+000
 0.140413333333228E+000
 0.143299999999891E+000
 0.146186666666568E+000
 0.149073333333243E+000
 0.151959999999917E+000
 0.154846666666589E+000
 0.157733333333264E+000
 0.160619999999941E+000
 0.163506666666620E+000
 0.166393333333288E+000
 0.169279999999957E+000
 0.172166666666626E+000
 0.175053333333295E+000
 0.177939999999969E+000
 0.180826666666646E+000
 0.183713333333323E+000
 0.186600000000000E+000
 0.189568312089465E+000
 0.192595990399743E+000
 0.195684222274955E+000
 0.198834218785478E+000
 0.202047215232424E+000
 0.205324471614550E+000
 0.208667273110606E+000
 0.212076930647961E+000
 0.215554781332885E+000
 0.219102189025116E+000
 0.222720544874696E+000
 0.226411267844452E+000
 0.230175805289228E+000
 0.234015633491716E+000
 0.237932258254057E+000
 0.241927215511498E+000
 0.246002071908630E+000
 0.250158425428315E+000
 0.254397906017121E+000
 0.258722176200897E+000
 0.263132931791473E+000
 0.267631902492949E+000
 0.272220852595767E+000
 0.276901581700494E+000
 0.281675925404848E+000
 0.286545755988222E+000
 0.291512983185915E+000
 0.296579554933238E+000
 0.301747458104513E+000
 0.307018719348236E+000
 0.312395405826967E+000
 0.317879626018879E+000
 0.323473530615924E+000
 0.329179313299270E+000
 0.334999211638612E+000
 0.340935507968814E+000
 0.346990530201175E+000
 0.353166652862230E+000
 0.359466297982305E+000
 0.365891936017400E+000
 0.372446086811941E+000
 0.379131320628632E+000
 0.385950259128216E+000
 0.392905576383514E+000
 0.400000000000000E+000
 0.000000000000000E+000
 0.882176872085703E-002
 0.170664124034084E-001
 0.247716868772286E-001
 0.319728779889739E-001
 0.387029631268964E-001
 0.449927622993248E-001
 0.508710793043814E-001
 0.563648335233779E-001
 0.614991832696965E-001
 0.662976409642483E-001
 0.707821808554287E-001
 0.749733396398470E-001
 0.788903104828347E-001
 0.825510309206973E-001
 0.859722649662563E-001
 0.891696799554679E-001
 0.921579182810485E-001
 0.949506643824559E-001
 0.975607074481238E-001
 0.100000000000000E+000
 0.102886666666662E+000
 0.105773333333324E+000
 0.108659999999987E+000
 0.111546666666647E+000
 0.114433333333303E+000
 0.117319999999958E+000
 0.120206666666614E+000
 0.123093333333270E+000
 0.125979999999929E+000
 0.128866666666591E+000
 0.131753333333252E+000
 0.134639999999910E+000
 0.137526666666569E+000
 0.140413333333230E+000
 0.143299999999894E+000
 0.146186666666570E+000
 0.149073333333245E+000
 0.151959999999919E+000
 0.154846666666591E+000
 0.157733333333266E+000
 0.160619999999942E+000
 0.163506666666621E+000
 0.166393333333289E+000
 0.169279999999958E+000
 0.172166666666627E+000
 0.175053333333295E+000
 0.177939999999970E+000
 0.180826666666646E+000
 0.183713333333323E+000
 0.186600000000000E+000
 0.189568312089154E+000
 0.192595990399436E+000
 0.195684222274652E+000
 0.198834218785180E+000
 0.202047215232131E+000
 0.205324471614262E+000
 0.208667273110324E+000
 0.212076930647686E+000
 0.215554781332616E+000
 0.219102189024853E+000
 0.222720544874440E+000
 0.226411267844204E+000
 0.230175805288988E+000
 0.234015633491485E+000
 0.237932258253834E+000
 0.241927215511284E+000
 0.246002071908426E+000
 0.250158425428121E+000
 0.254397906016938E+000
 0.258722176200725E+000
 0.263132931791312E+000
 0.267631902492801E+000
 0.272220852595631E+000
 0.276901581700372E+000
 0.281675925404740E+000
 0.286545755988128E+000
 0.291512983185836E+000
 0.296579554933174E+000
 0.301747458104466E+000
 0.307018719348206E+000
 0.312395405826953E+000
 0.317879626018884E+000
 0.323473530615948E+000
 0.329179313299312E+000
 0.334999211638675E+000
 0.340935507968898E+000
 0.346990530201281E+000
 0.353166652862359E+000
 0.359466297982458E+000
 0.365891936017577E+000
 0.372446086812143E+000
 0.379131320628861E+000
 0.385950259128472E+000
 0.392905576383800E+000
 0.400000000000000E+000
 0.000000000000000E+000
 0.882176872121385E-002
 0.170664124036352E-001
 0.247716868773410E-001
 0.319728779889858E-001
 0.387029631268205E-001
 0.449927622991726E-001
 0.508710793041630E-001
 0.563648335231022E-001
 0.614991832693719E-001
 0.662976409638824E-001
 0.707821808550282E-001
 0.749733396394182E-001
 0.788903104823828E-001
 0.825510309202273E-001
 0.859722649657725E-001
 0.891696799549740E-001
 0.921579182805480E-001
 0.949506643819517E-001
 0.975607074476186E-001
 0.100000000000000E+000
 0.102886666666662E+000
 0.105773333333324E+000
 0.108659999999988E+000
 0.111546666666648E+000
 0.114433333333304E+000
 0.117319999999959E+000
 0.120206666666615E+000
 0.123093333333272E+000
 0.125979999999931E+000
 0.128866666666592E+000
 0.131753333333254E+000
 0.134639999999912E+000
 0.137526666666571E+000
 0.140413333333232E+000
 0.143299999999896E+000
 0.146186666666573E+000
 0.149073333333247E+000
 0.151959999999921E+000
 0.154846666666593E+000
 0.157733333333267E+000
 0.160619999999943E+000
 0.163506666666622E+000
 0.166393333333290E+000
 0.169279999999959E+000
 0.172166666666627E+000
 0.175053333333296E+000
 0.177939999999970E+000
 0.180826666666646E+000
 0.183713333333323E+000
 0.186600000000000E+000
 0.189568312088842E+000
 0.192595990399128E+000
 0.195684222274349E+000
 0.198834218784882E+000
 0.202047215231838E+000
 0.205324471613974E+000
 0.208667273110042E+000
 0.212076930647410E+000
 0.215554781332346E+000
 0.219102189024590E+000
 0.222720544874184E+000
 0.226411267843956E+000
 0.230175805288748E+000
 0.234015633491253E+000
 0.237932258253611E+000
 0.241927215511070E+000
 0.246002071908222E+000
 0.250158425427927E+000
 0.254397906016755E+000
 0.258722176200552E+000
 0.263132931791151E+000
 0.267631902492653E+000
 0.272220852595496E+000
 0.276901581700249E+000
 0.281675925404631E+000
 0.286545755988034E+000
 0.291512983185757E+000
 0.296579554933111E+000
 0.301747458104418E+000
 0.307018719348175E+000
 0.312395405826940E+000
 0.317879626018889E+000
 0.323473530615971E+000
 0.329179313299355E+000
 0.334999211638738E+000
 0.340935507968982E+000
 0.346990530201387E+000
 0.353166652862488E+000
 0.359466297982610E+000
 0.365891936017754E+000