 VARIABLES ="x" "y" "z"
 ZONE  T = Block1, I=21, J=219, K=2, DATAPACKING=BLOCK, VARLOCATION=([1-3]=NODAL)
 0.000000000000000E+000
 0.882176871693207E-002
 0.170664124009132E-001
 0.247716868759924E-001
 0.319728779888430E-001
 0.387029631277310E-001
 0.449927623009993E-001
 0.508710793067836E-001
 0.563648335264109E-001
 0.614991832732673E-001
 0.662976409682736E-001
 0.707821808598336E-001
 0.749733396445644E-001
 0.788903104878049E-001
 0.825510309258672E-001
 0.859722649715785E-001
 0.891696799609002E-001
 0.921579182865540E-001
 0.949506643880014E-001
 0.975607074536804E-001
 0.100000000000000E+000
 0.000000000000000E+000
 0.882176871697810E-002
 0.170664124009425E-001
 0.247716868760069E-001
 0.319728779888445E-001
 0.387029631277213E-001
 0.449927623009797E-001
 0.508710793067554E-001
 0.563648335263753E-001
 0.614991832732254E-001
 0.662976409682264E-001
 0.707821808597819E-001
 0.749733396445091E-001
 0.788903104877467E-001
 0.825510309258066E-001
 0.859722649715162E-001
 0.891696799608364E-001
 0.921579182864894E-001
 0.949506643879364E-001
 0.975607074536152E-001
 0.100000000000000E+000
 0.000000000000000E+000
 0.882176871702460E-002
 0.170664124009720E-001
 0.247716868760215E-001
 0.319728779888460E-001
 0.387029631277114E-001
 0.449927623009599E-001
 0.508710793067270E-001
 0.563648335263394E-001
 0.614991832731831E-001
 0.662976409681787E-001
 0.707821808597297E-001
 0.749733396444532E-001
 0.788903104876878E-001
 0.825510309257454E-001
 0.859722649714531E-001
 0.891696799607721E-001
 0.921579182864242E-001
 0.949506643878707E-001
 0.975607074535494E-001
 0.100000000000000E+000
 0.000000000000000E+000
 0.882176871707156E-002
 0.170664124010019E-001
 0.247716868760363E-001
 0.319728779888476E-001
 0.387029631277014E-001
 0.449927623009398E-001
 0.508710793066982E-001
 0.563648335263031E-001
 0.614991832731404E-001
 0.662976409681306E-001
 0.707821808596770E-001
 0.749733396443967E-001
 0.788903104876283E-001
 0.825510309256835E-001
 0.859722649713894E-001
 0.891696799607071E-001
 0.921579182863583E-001
 0.949506643878043E-001
 0.975607074534829E-001
 0.100000000000000E+000
 0.000000000000000E+000
 0.882176871711899E-002
 0.170664124010320E-001
 0.247716868760512E-001
 0.319728779888492E-001
 0.387029631276913E-001
 0.449927623009196E-001
 0.508710793066692E-001
 0.563648335262664E-001
 0.614991832730973E-001
 0.662976409680819E-001
 0.707821808596238E-001
 0.749733396443397E-001
 0.788903104875682E-001
 0.825510309256210E-001
 0.859722649713251E-001
 0.891696799606414E-001
 0.921579182862918E-001
 0.949506643877373E-001
 0.975607074534158E-001
 0.100000000000000E+000
 0.000000000000000E+000
 0.882176871716689E-002
 0.170664124010625E-001
 0.247716868760663E-001
 0.319728779888508E-001
 0.387029631276811E-001
 0.449927623008992E-001
 0.508710793066399E-001
 0.563648335262294E-001
 0.614991832730537E-001
 0.662976409680328E-001
 0.707821808595700E-001
 0.749733396442822E-001
 0.788903104875076E-001
 0.825510309255579E-001
 0.859722649712601E-001
 0.891696799605751E-001
 0.921579182862246E-001
 0.949506643876697E-001
 0.975607074533480E-001
 0.100000000000000E+000
 0.000000000000000E+000
 0.882176871721527E-002
 0.170664124010932E-001
 0.247716868760816E-001
 0.319728779888524E-001
 0.387029631276708E-001
 0.449927623008785E-001
 0.508710793066103E-001
 0.563648335261921E-001
 0.614991832730097E-001
 0.662976409679832E-001
 0.707821808595157E-001
 0.749733396442240E-001
 0.788903104874463E-001
 0.825510309254942E-001
 0.859722649711945E-001
 0.891696799605082E-001
 0.921579182861567E-001
 0.949506643876013E-001
 0.975607074532795E-001
 0.100000000000000E+000
 0.000000000000000E+000
 0.882176871726414E-002
 0.170664124011243E-001
 0.247716868760970E-001
 0.319728779888540E-001
 0.387029631276604E-001
 0.449927623008577E-001
 0.508710793065804E-001
 0.563648335261543E-001
 0.614991832729652E-001
 0.662976409679331E-001
 0.707821808594609E-001
 0.749733396441653E-001
 0.788903104873844E-001
 0.825510309254299E-001
 0.859722649711283E-001
 0.891696799604406E-001
 0.921579182860882E-001
 0.949506643875322E-001
 0.975607074532103E-001
 0.100000000000000E+000
 0.000000000000000E+000
 0.882176871731350E-002
 0.170664124011557E-001
 0.247716868761125E-001
 0.319728779888557E-001
 0.387029631276499E-001
 0.449927623008366E-001
 0.508710793065501E-001
 0.563648335261161E-001
 0.614991832729203E-001
 0.662976409678824E-001
 0.707821808594055E-001
 0.749733396441059E-001
 0.788903104873219E-001
 0.825510309253648E-001
 0.859722649710613E-001
 0.891696799603723E-001
 0.921579182860189E-001
 0.949506643874625E-001
 0.975607074531404E-001
 0.100000000000000E+000
 0.000000000000000E+000
 0.882176871736335E-002
 0.170664124011874E-001
 0.247716868761282E-001
 0.319728779888573E-001
 0.387029631276393E-001
 0.449927623008154E-001
 0.508710793065196E-001
 0.563648335260776E-001
 0.614991832728749E-001
 0.662976409678313E-001
 0.707821808593495E-001
 0.749733396440461E-001
 0.788903104872588E-001
 0.825510309252992E-001
 0.859722649709937E-001
 0.891696799603033E-001
 0.921579182859490E-001
 0.949506643873921E-001
 0.975607074530698E-001
 0.100000000000000E+000
 0.000000000000000E+000
 0.882176871741369E-002
 0.170664124012194E-001
 0.247716868761441E-001
 0.319728779888590E-001
 0.387029631276286E-001
 0.449927623007939E-001
 0.508710793064888E-001
 0.563648335260387E-001
 0.614991832728291E-001
 0.662976409677797E-001
 0.707821808592931E-001
 0.749733396439855E-001
 0.788903104871951E-001
 0.825510309252328E-001
 0.859722649709255E-001
 0.891696799602336E-001
 0.921579182858784E-001
 0.949506643873209E-001
 0.975607074529986E-001
 0.100000000000000E+000
 0.000000000000000E+000
 0.882176871746454E-002
 0.170664124012517E-001
 0.247716868761601E-001
 0.319728779888607E-001
 0.387029631276178E-001
 0.449927623007722E-001
 0.508710793064577E-001
 0.563648335259994E-001
 0.614991832727829E-001
 0.662976409677275E-001
 0.707821808592360E-001
 0.749733396439244E-001
 0.788903104871307E-001
 0.825510309251658E-001
 0.859722649708565E-001
 0.891696799601632E-001
 0.921579182858071E-001
 0.949506643872491E-001
 0.975607074529266E-001
 0.100000000000000E+000
 0.000000000000000E+000
 0.882176871751590E-002
 0.170664124012843E-001
 0.247716868761763E-001
 0.319728779888624E-001
 0.387029631276069E-001
 0.449927623007503E-001
 0.508710793064263E-001
 0.563648335259597E-001
 0.614991832727362E-001
 0.662976409676748E-001
 0.707821808591783E-001
 0.749733396438627E-001
 0.788903104870656E-001
 0.825510309250982E-001
 0.859722649707869E-001
 0.891696799600921E-001
 0.921579182857351E-001
 0.949506643871766E-001
 0.975607074528538E-001
 0.100000000000000E+000
 0.000000000000000E+000
 0.882176871756777E-002
 0.170664124013173E-001
 0.247716868761926E-001
 0.319728779888642E-001
 0.387029631275959E-001
 0.449927623007281E-001
 0.508710793063945E-001
 0.563648335259197E-001
 0.614991832726889E-001
 0.662976409676217E-001
 0.707821808591201E-001
 0.749733396438003E-001
 0.788903104870000E-001
 0.825510309250299E-001
 0.859722649707165E-001
 0.891696799600203E-001
 0.921579182856623E-001
 0.949506643871032E-001
 0.975607074527804E-001
 0.100000000000000E+000
 0.000000000000000E+000
 0.882176871762017E-002
 0.170664124013506E-001
 0.247716868762091E-001
 0.319728779888659E-001
 0.387029631275847E-001
 0.449927623007058E-001
 0.508710793063625E-001
 0.563648335258792E-001
 0.614991832726413E-001
 0.662976409675679E-001
 0.707821808590613E-001
 0.749733396437374E-001
 0.788903104869336E-001
 0.825510309249609E-001
 0.859722649706455E-001
 0.891696799599478E-001
 0.921579182855888E-001
 0.949506643870292E-001
 0.975607074527063E-001
 0.100000000000000E+000
 0.000000000000000E+000
 0.882176871767308E-002
 0.170664124013843E-001
 0.247716868762258E-001
 0.319728779888677E-001
 0.387029631275735E-001
 0.449927623006832E-001
 0.508710793063301E-001
 0.563648335258383E-001
 0.614991832725932E-001
 0.662976409675136E-001
 0.707821808590019E-001
 0.749733396436738E-001
 0.788903104868666E-001
 0.825510309248912E-001
 0.859722649705738E-001
 0.891696799598746E-001
 0.921579182855145E-001
 0.949506643869545E-001
 0.975607074526313E-001
 0.100000000000000E+000
 0.000000000000000E+000
 0.882176871772653E-002
 0.170664124014182E-001
 0.247716868762426E-001
 0.319728779888695E-001
 0.387029631275621E-001
 0.449927623006604E-001
 0.508710793062974E-001
 0.563648335257970E-001
 0.614991832725445E-001
 0.662976409674588E-001
 0.707821808589420E-001
 0.749733396436096E-001
 0.788903104867989E-001
 0.825510309248208E-001
 0.859722649705012E-001
 0.891696799598006E-001
 0.921579182854396E-001
 0.949506643868789E-001
 0.975607074525557E-001
 0.100000000000000E+000
 0.000000000000000E+000
 0.882176871778050E-002
 0.170664124014526E-001
 0.247716868762596E-001
 0.319728779888713E-001
 0.387029631275506E-001
 0.449927623006374E-001
 0.508710793062643E-001
 0.563648335257553E-001
 0.614991832724954E-001
 0.662976409674035E-001
 0.707821808588814E-001
 0.749733396435447E-001
 0.788903104867305E-001
 0.825510309247497E-001
 0.859722649704281E-001
 0.891696799597259E-001
 0.921579182853639E-001
 0.949506643868027E-001
 0.975607074524792E-001
 0.100000000000000E+000
 0.000000000000000E+000
 0.882176871783502E-002
 0.170664124014872E-001
 0.247716868762768E-001
 0.319728779888731E-001
 0.387029631275390E-001
 0.449927623006141E-001
 0.508710793062309E-001
 0.563648335257131E-001
 0.614991832724458E-001
 0.662976409673476E-001
 0.707821808588202E-001
 0.749733396434791E-001
 0.788903104866615E-001
 0.825510309246779E-001
 0.859722649703541E-001
 0.891696799596504E-001
 0.921579182852874E-001
 0.949506643867256E-001
 0.975607074524021E-001
 0.100000000000000E+000
 0.000000000000000E+000
 0.882176871789009E-002
 0.170664124015222E-001
 0.247716868762941E-001
 0.319728779888749E-001
 0.387029631275273E-001
 0.449927623005906E-001
 0.508710793061972E-001
 0.563648335256706E-001
 0.614991832723957E-001
 0.662976409672911E-001
 0.707821808587584E-001
 0.749733396434130E-001
 0.788903104865918E-001
 0.825510309246053E-001
 0.859722649702795E-001
 0.891696799595742E-001
 0.921579182852102E-001
 0.949506643866478E-001
 0.975607074523241E-001
 0.100000000000000E+000
 0.000000000000000E+000
 0.882176871794570E-002
 0.170664124015576E-001
 0.247716868763116E-001
 0.319728779888768E-001
 0.387029631275155E-001
 0.449927623005669E-001
 0.508710793061632E-001
 0.563648335256276E-001
 0.614991832723451E-001
 0.662976409672341E-001
 0.707821808586960E-001
 0.749733396433461E-001
 0.788903104865214E-001
 0.825510309245321E-001
 0.859722649702041E-001
 0.891696799594972E-001
 0.921579182851322E-001
 0.949506643865693E-001
 0.975607074522454E-001
 0.100000000000000E+000
 0.000000000000000E+000
 0.882176871800187E-002
 0.170664124015933E-001
 0.247716868763293E-001
 0.319728779888786E-001
 0.387029631275035E-001
 0.449927623005430E-001
 0.508710793061288E-001
 0.563648335255842E-001
 0.614991832722940E-001
 0.662976409671765E-001
 0.707821808586329E-001
 0.749733396432786E-001
 0.788903104864502E-001
 0.825510309244581E-001
 0.859722649701279E-001
 0.891696799594195E-001
 0.921579182850534E-001
 0.949506643864899E-001
 0.975607074521659E-001
 0.100000000000000E+000
 0.000000000000000E+000
 0.882176871805861E-002
 0.170664124016294E-001
 0.247716868763472E-001
 0.319728779888805E-001
 0.387029631274915E-001
 0.449927623005187E-001
 0.508710793060941E-001
 0.563648335255404E-001
 0.614991832722424E-001
 0.662976409671183E-001
 0.707821808585693E-001
 0.749733396432104E-001
 0.788903104863784E-001
 0.825510309243834E-001
 0.859722649700509E-001
 0.891696799593410E-001
 0.921579182849738E-001
 0.949506643864098E-001
 0.975607074520856E-001
 0.100000000000000E+000
 0.000000000000000E+000
 0.882176871811591E-002
 0.170664124016658E-001
 0.247716868763652E-001
 0.319728779888825E-001
 0.387029631274793E-001
 0.449927623004943E-001
 0.508710793060591E-001
 0.563648335254961E-001
 0.614991832721903E-001
 0.662976409670595E-001
 0.707821808585050E-001
 0.749733396431415E-001
 0.788903104863058E-001
 0.825510309243079E-001
 0.859722649699733E-001
 0.891696799592617E-001
 0.921579182848934E-001
 0.949506643863288E-001
 0.975607074520044E-001
 0.100000000000000E+000
 0.000000000000000E+000
 0.882176871817378E-002
 0.170664124017026E-001
 0.247716868763835E-001
 0.319728779888844E-001
 0.387029631274670E-001
 0.449927623004696E-001
 0.508710793060236E-001
 0.563648335254514E-001
 0.614991832721376E-001
 0.662976409670002E-001
 0.707821808584400E-001
 0.749733396430720E-001
 0.788903104862325E-001
 0.825510309242317E-001
 0.859722649698948E-001
 0.891696799591816E-001
 0.921579182848123E-001
 0.949506643862470E-001
 0.975607074519225E-001
 0.100000000000000E+000
 0.000000000000000E+000
 0.882176871823223E-002
 0.170664124017397E-001
 0.247716868764019E-001
 0.319728779888863E-001
 0.387029631274545E-001
 0.449927623004446E-001
 0.508710793059879E-001
 0.563648335254062E-001
 0.614991832720845E-001
 0.662976409669402E-001
 0.707821808583744E-001
 0.749733396430017E-001
 0.788903104861585E-001
 0.825510309241547E-001
 0.859722649698155E-001
 0.891696799591007E-001
 0.921579182847302E-001
 0.949506643861645E-001
 0.975607074518397E-001
 0.100000000000000E+000
 0.000000000000000E+000
 0.882176871829126E-002
 0.170664124017773E-001
 0.247716868764205E-001
 0.319728779888883E-001
 0.387029631274420E-001
 0.449927623004195E-001
 0.508710793059517E-001
 0.563648335253606E-001
 0.614991832720308E-001
 0.662976409668797E-001
 0.707821808583081E-001
 0.749733396429308E-001
 0.788903104860838E-001
 0.825510309240769E-001
 0.859722649697355E-001
 0.891696799590190E-001
 0.921579182846475E-001
 0.949506643860810E-001
 0.975607074517562E-001
 0.100000000000000E+000
 0.000000000000000E+000
 0.882176871835089E-002
 0.170664124018152E-001
 0.247716868764393E-001
 0.319728779888903E-001
 0.387029631274293E-001
 0.449927623003940E-001
 0.508710793059152E-001
 0.563648335253145E-001
 0.614991832719765E-001
 0.662976409668185E-001
 0.707821808582413E-001
 0.749733396428591E-001
 0.788903104860083E-001
 0.825510309239984E-001
 0.859722649696546E-001
 0.891696799589365E-001
 0.921579182845638E-001
 0.949506643859968E-001
 0.975607074516718E-001
 0.100000000000000E+000
 0.000000000000000E+000
 0.882176871841111E-002
 0.170664124018535E-001
 0.247716868764582E-001
 0.319728779888923E-001
 0.387029631274165E-001
 0.449927623003683E-001
 0.508710793058784E-001
 0.563648335252680E-001
 0.614991832719217E-001
 0.662976409667567E-001
 0.707821808581736E-001
 0.749733396427867E-001
 0.788903104859320E-001
 0.825510309239190E-001
 0.859722649695730E-001
 0.891696799588531E-001
 0.921579182844794E-001
 0.949506643859117E-001
 0.975607074515865E-001
 0.100000000000000E+000
 0.000000000000000E+000
 0.882176871847194E-002
 0.170664124018921E-001
 0.247716868764774E-001
 0.319728779888943E-001
 0.387029631274036E-001
 0.449927623003424E-001
 0.508710793058411E-001
 0.563648335252210E-001
 0.614991832718664E-001
 0.662976409666944E-001
 0.707821808581054E-001
 0.749733396427136E-001
 0.788903104858550E-001
 0.825510309238389E-001
 0.859722649694905E-001
 0.891696799587689E-001
 0.921579182843941E-001
 0.949506643858258E-001
 0.975607074515004E-001
 0.100000000000000E+000
 0.000000000000000E+000
 0.882176871853337E-002
 0.170664124019312E-001
 0.247716868764967E-001
 0.319728779888964E-001
 0.387029631273905E-001
 0.449927623003162E-001
 0.508710793058035E-001
 0.563648335251735E-001
 0.614991832718105E-001
 0.662976409666314E-001
 0.707821808580364E-001
 0.749733396426398E-001
 0.788903104857772E-001
 0.825510309237580E-001
 0.859722649694072E-001
 0.891696799586839E-001
 0.921579182843078E-001
 0.949506643857390E-001
 0.975607074514134E-001
 0.100000000000000E+000
 0.000000000000000E+000
 0.882176871859542E-002
 0.170664124019706E-001
 0.247716868765163E-001
 0.319728779888985E-001
 0.387029631273773E-001
 0.449927623002897E-001
 0.508710793057656E-001
 0.563648335251256E-001
 0.614991832717540E-001
 0.662976409665677E-001
 0.707821808579668E-001
 0.749733396425653E-001
 0.788903104856986E-001
 0.825510309236763E-001
 0.859722649693231E-001
 0.891696799585980E-001
 0.921579182842208E-001
 0.949506643856513E-001
 0.975607074513256E-001
 0.100000000000000E+000
 0.000000000000000E+000
 0.882176871865809E-002
 0.170664124020105E-001
 0.247716868765360E-001
 0.319728779889005E-001
 0.387029631273640E-001
 0.449927623002630E-001
 0.508710793057272E-001
 0.563648335250771E-001
 0.614991832716970E-001
 0.662976409665035E-001
 0.707821808578965E-001
 0.749733396424899E-001
 0.788903104856192E-001
 0.825510309235938E-001
 0.859722649692381E-001
 0.891696799585113E-001
 0.921579182841330E-001
 0.949506643855628E-001
 0.975607074512368E-001
 0.100000000000000E+000
 0.000000000000000E+000
 0.882176871872139E-002
 0.170664124020507E-001
 0.247716868765560E-001
 0.319728779889026E-001
 0.387029631273505E-001
 0.449927623002360E-001
 0.508710793056885E-001
 0.563648335250282E-001
 0.614991832716394E-001
 0.662976409664386E-001
 0.707821808578255E-001
 0.749733396424138E-001
 0.788903104855391E-001
 0.825510309235104E-001
 0.859722649691523E-001
 0.891696799584237E-001
 0.921579182840441E-001
 0.949506643854733E-001
 0.975607074511473E-001
 0.100000000000000E+000
 0.000000000000000E+000
 0.882176871878531E-002
 0.170664124020913E-001
 0.247716868765761E-001
 0.319728779889048E-001
 0.387029631273369E-001
 0.449927623002087E-001
 0.508710793056493E-001
 0.563648335249788E-001
 0.614991832715813E-001
 0.662976409663730E-001
 0.707821808577537E-001
 0.749733396423370E-001
 0.788903104854581E-001
 0.825510309234262E-001
 0.859722649690656E-001
 0.891696799583352E-001
 0.921579182839545E-001
 0.949506643853830E-001
 0.975607074510567E-001
 0.100000000000000E+000
 0.000000000000000E+000
 0.882176871884988E-002
 0.170664124021324E-001
 0.247716868765964E-001
 0.319728779889069E-001
 0.387029631273232E-001
 0.449927623001811E-001
 0.508710793056098E-001
 0.563648335249289E-001
 0.614991832715225E-001
 0.662976409663068E-001
 0.707821808576812E-001
 0.749733396422594E-001
 0.788903104853764E-001
 0.825510309233412E-001
 0.859722649689780E-001
 0.891696799582459E-001
 0.921579182838639E-001
 0.949506643852918E-001
 0.975607074509653E-001
 0.100000000000000E+000
 0.000000000000000E+000
 0.882176871891509E-002
 0.170664124021738E-001
 0.247716868766170E-001
 0.319728779889091E-001
 0.387029631273093E-001
 0.449927623001533E-001
 0.508710793055699E-001
 0.563648335248786E-001
 0.614991832714632E-001
 0.662976409662399E-001
 0.707821808576081E-001
 0.749733396421810E-001
 0.788903104852938E-001
 0.825510309232552E-001
 0.859722649688896E-001
 0.891696799581556E-001
 0.921579182837724E-001
 0.949506643851996E-001
 0.975607074508730E-001
 0.100000000000000E+000
 0.000000000000000E+000
 0.882176871898096E-002
 0.170664124022157E-001
 0.247716868766377E-001
 0.319728779889113E-001
 0.387029631272953E-001
 0.449927623001252E-001
 0.508710793055296E-001
 0.563648335248276E-001
 0.614991832714033E-001
 0.662976409661723E-001
 0.707821808575341E-001
 0.749733396421019E-001
 0.788903104852104E-001
 0.825510309231685E-001
 0.859722649688003E-001
 0.891696799580645E-001
 0.921579182836801E-001
 0.949506643851065E-001
 0.975607074507798E-001
 0.100000000000000E+000
 0.000000000000000E+000
 0.882176871904748E-002
 0.170664124022580E-001
 0.247716868766587E-001
 0.319728779889135E-001
 0.387029631272812E-001
 0.449927623000969E-001
 0.508710793054889E-001
 0.563648335247763E-001
 0.614991832713428E-001
 0.662976409661041E-001
 0.707821808574595E-001
 0.749733396420219E-001
 0.788903104851262E-001
 0.825510309230808E-001
 0.859722649687101E-001
 0.891696799579724E-001
 0.921579182835867E-001
 0.949506643850126E-001
 0.975607074506856E-001
 0.100000000000000E+000
 0.000000000000000E+000
 0.882176871911467E-002
 0.170664124023007E-001
 0.247716868766798E-001
 0.319728779889158E-001
 0.387029631272669E-001
 0.449927623000682E-001
 0.508710793054478E-001
 0.563648335247243E-001
 0.614991832712816E-001
 0.662976409660352E-001
 0.707821808573841E-001
 0.749733396419411E-001
 0.788903104850411E-001
 0.825510309229923E-001
 0.859722649686190E-001
 0.891696799578794E-001
 0.921579182834925E-001
 0.949506643849176E-001
 0.975607074505905E-001
 0.100000000000000E+000
 0.000000000000000E+000
 0.882176871918253E-002
 0.170664124023439E-001
 0.247716868767012E-001
 0.319728779889180E-001
 0.387029631272525E-001
 0.449927623000392E-001
 0.508710793054062E-001
 0.563648335246719E-001
 0.614991832712199E-001
 0.662976409659656E-001
 0.707821808573079E-001
 0.749733396418596E-001
 0.788903104849551E-001
 0.825510309229030E-001
 0.859722649685269E-001
 0.891696799577855E-001
 0.921579182833973E-001
 0.949506643848217E-001
 0.975607074504944E-001
 0.100000000000000E+000
 0.000000000000000E+000
 0.882176871925107E-002
 0.170664124023874E-001
 0.247716868767228E-001
 0.319728779889203E-001
 0.387029631272379E-001
 0.449927623000100E-001
 0.508710793053643E-001
 0.563648335246189E-001
 0.614991832711576E-001
 0.662976409658953E-001
 0.707821808572310E-001
 0.749733396417772E-001
 0.788903104848683E-001
 0.825510309228127E-001
 0.859722649684340E-001
 0.891696799576906E-001
 0.921579182833012E-001
 0.949506643847249E-001
 0.975607074503974E-001
 0.100000000000000E+000
 0.000000000000000E+000
 0.882176871932029E-002
 0.170664124024314E-001
 0.247716868767446E-001
 0.319728779889226E-001
 0.387029631272232E-001
 0.449927622999805E-001
 0.508710793053219E-001
 0.563648335245654E-001
 0.614991832710946E-001
 0.662976409658243E-001
 0.707821808571533E-001
 0.749733396416940E-001
 0.788903104847807E-001
 0.825510309227215E-001
 0.859722649683401E-001
 0.891696799575948E-001
 0.921579182832040E-001
 0.949506643846271E-001
 0.975607074502994E-001
 0.100000000000000E+000
 0.000000000000000E+000
 0.882176871939021E-002
 0.170664124024759E-001
 0.247716868767666E-001
 0.319728779889250E-001
 0.387029631272083E-001
 0.449927622999506E-001
 0.508710793052791E-001
 0.563648335245114E-001
 0.614991832710310E-001
 0.662976409657526E-001
 0.707821808570748E-001
 0.749733396416100E-001
 0.788903104846921E-001
 0.825510309226294E-001
 0.859722649682453E-001
 0.891696799574980E-001
 0.921579182831060E-001
 0.949506643845283E-001
 0.975607074502004E-001
 0.100000000000000E+000
 0.000000000000000E+000
 0.882176871946083E-002
 0.170664124025208E-001
 0.247716868767889E-001
 0.319728779889273E-001
 0.387029631271933E-001
 0.449927622999205E-001
 0.508710793052359E-001
 0.563648335244568E-001
 0.614991832709667E-001
 0.662976409656802E-001
 0.707821808569956E-001
 0.749733396415251E-001
 0.788903104846027E-001
 0.825510309225364E-001
 0.859722649681496E-001
 0.891696799574003E-001
 0.921579182830069E-001
 0.949506643844285E-001
 0.975607074501004E-001
 0.100000000000000E+000
 0.000000000000000E+000
 0.882176871953215E-002
 0.170664124025661E-001
 0.247716868768113E-001
 0.319728779889297E-001
 0.387029631271781E-001
 0.449927622998901E-001
 0.508710793051923E-001
 0.563648335244017E-001
 0.614991832709018E-001
 0.662976409656071E-001
 0.707821808569155E-001
 0.749733396414394E-001
 0.788903104845124E-001
 0.825510309224424E-001
 0.859722649680529E-001
 0.891696799573016E-001
 0.921579182829069E-001
 0.949506643843278E-001
 0.975607074499995E-001
 0.100000000000000E+000
 0.000000000000000E+000
 0.882176871960418E-002
 0.170664124026119E-001
 0.247716868768340E-001
 0.319728779889321E-001
 0.387029631271628E-001
 0.449927622998593E-001
 0.508710793051482E-001
 0.563648335243461E-001
 0.614991832708363E-001
 0.662976409655332E-001
 0.707821808568347E-001
 0.749733396413528E-001
 0.788903104844212E-001
 0.825510309223476E-001
 0.859722649679552E-001
 0.891696799572019E-001
 0.921579182828059E-001
 0.949506643842260E-001
 0.975607074498975E-001
 0.100000000000000E+000
 0.000000000000000E+000
 0.882176871967694E-002
 0.170664124026582E-001
 0.247716868768569E-001
 0.319728779889345E-001
 0.387029631271473E-001
 0.449927622998283E-001
 0.508710793051036E-001
 0.563648335242899E-001
 0.614991832707701E-001
 0.662976409654586E-001
 0.707821808567530E-001
 0.749733396412654E-001
 0.788903104843291E-001
 0.825510309222518E-001
 0.859722649678566E-001
 0.891696799571012E-001
 0.921579182827038E-001
 0.949506643841232E-001
 0.975607074497945E-001
 0.100000000000000E+000
 0.000000000000000E+000
 0.882176871975042E-002
 0.170664124027049E-001
 0.247716868768801E-001
 0.319728779889370E-001
 0.387029631271317E-001
 0.449927622997969E-001
 0.508710793050587E-001
 0.563648335242331E-001
 0.614991832707032E-001
 0.662976409653832E-001
 0.707821808566706E-001
 0.749733396411771E-001
 0.788903104842360E-001
 0.825510309221550E-001
 0.859722649677569E-001
 0.891696799569995E-001
 0.921579182826007E-001
 0.949506643840194E-001
 0.975607074496904E-001
 0.100000000000000E+000
 0.000000000000000E+000
 0.882176871982464E-002
 0.170664124027521E-001
 0.247716868769035E-001
 0.319728779889394E-001
 0.387029631271159E-001
 0.449927622997653E-001
 0.508710793050133E-001
 0.563648335241757E-001
 0.614991832706357E-001
 0.662976409653071E-001
 0.707821808565873E-001
 0.749733396410878E-001
 0.788903104841420E-001
 0.825510309220572E-001
 0.859722649676563E-001
 0.891696799568968E-001
 0.921579182824966E-001
 0.949506643839145E-001
 0.975607074495854E-001
 0.100000000000000E+000
 0.000000000000000E+000
 0.882176871989960E-002
 0.170664124027997E-001
 0.247716868769271E-001
 0.319728779889420E-001
 0.387029631271000E-001
 0.449927622997333E-001
 0.508710793049674E-001
 0.563648335241178E-001
 0.614991832705675E-001
 0.662976409652302E-001
 0.707821808565032E-001
 0.749733396409978E-001
 0.788903104840471E-001
 0.825510309219585E-001
 0.859722649675546E-001
 0.891696799567930E-001
 0.921579182823915E-001
 0.949506643838086E-001
 0.975607074494792E-001
 0.100000000000000E+000
 0.000000000000000E+000
 0.882176871997531E-002
 0.170664124028479E-001
 0.247716868769509E-001
 0.319728779889445E-001
 0.387029631270839E-001
 0.449927622997010E-001
 0.508710793049210E-001
 0.563648335240593E-001
 0.614991832704987E-001
 0.662976409651526E-001
 0.707821808564182E-001
 0.749733396409067E-001
 0.788903104839512E-001
 0.825510309218587E-001
 0.859722649674520E-001
 0.891696799566882E-001
 0.921579182822853E-001
 0.949506643837016E-001
 0.975607074493720E-001
 0.100000000000000E+000
 0.000000000000000E+000
 0.882176872005178E-002
 0.170664124028965E-001
 0.247716868769750E-001
 0.319728779889470E-001
 0.387029631270676E-001
 0.449927622996684E-001
 0.508710793048742E-001
 0.563648335240002E-001
 0.614991832704291E-001
 0.662976409650742E-001
 0.707821808563324E-001
 0.749733396408148E-001
 0.788903104838544E-001
 0.825510309217580E-001
 0.859722649673483E-001
 0.891696799565824E-001
 0.921579182821781E-001
 0.949506643835936E-001
 0.975607074492638E-001
 0.100000000000000E+000
 0.000000000000000E+000
 0.882176872012900E-002
 0.170664124029456E-001
 0.247716868769993E-001
 0.319728779889496E-001
 0.387029631270512E-001
 0.449927622996354E-001
 0.508710793048270E-001
 0.563648335239405E-001
 0.614991832703588E-001
 0.662976409649950E-001
 0.707821808562457E-001
 0.749733396407220E-001
 0.788903104837566E-001
 0.825510309216563E-001
 0.859722649672435E-001
 0.891696799564755E-001
 0.921579182820697E-001
 0.949506643834845E-001
 0.975607074491545E-001
 0.100000000000000E+000
 0.000000000000000E+000
 0.882176872020701E-002
 0.170664124029952E-001
 0.247716868770239E-001
 0.319728779889522E-001
 0.387029631270346E-001
 0.449927622996021E-001
 0.508710793047792E-001
 0.563648335238802E-001
 0.614991832702879E-001
 0.662976409649149E-001
 0.707821808561582E-001
 0.749733396406283E-001
 0.788903104836578E-001
 0.825510309215536E-001
 0.859722649671378E-001
 0.891696799563675E-001
 0.921579182819603E-001
 0.949506643833743E-001
 0.975607074490440E-001
 0.100000000000000E+000
 0.000000000000000E+000
 0.882176872028579E-002
 0.170664124030452E-001
 0.247716868770487E-001
 0.319728779889549E-001
 0.387029631270178E-001
 0.449927622995685E-001
 0.508710793047310E-001
 0.563648335238193E-001
 0.614991832702162E-001
 0.662976409648341E-001
 0.707821808560697E-001
 0.749733396405336E-001
 0.788903104835580E-001
 0.825510309214497E-001
 0.859722649670310E-001
 0.891696799562585E-001
 0.921579182818498E-001
 0.949506643832630E-001
 0.975607074489325E-001
 0.100000000000000E+000
 0.000000000000000E+000
 0.882176872036537E-002
 0.170664124030958E-001
 0.247716868770738E-001
 0.319728779889575E-001
 0.387029631270009E-001
 0.449927622995346E-001
 0.508710793046823E-001
 0.563648335237579E-001
 0.614991832701438E-001
 0.662976409647526E-001
 0.707821808559804E-001
 0.749733396404380E-001
 0.788903104834573E-001
 0.825510309213450E-001
 0.859722649669230E-001
 0.891696799561484E-001
 0.921579182817382E-001
 0.949506643831505E-001
 0.975607074488199E-001
 0.100000000000000E+000
 0.000000000000000E+000
 0.882176872044573E-002
 0.170664124031469E-001
 0.247716868770991E-001
 0.319728779889602E-001
 0.387029631269838E-001
 0.449927622995003E-001
 0.508710793046331E-001
 0.563648335236958E-001
 0.614991832700707E-001
 0.662976409646701E-001
 0.707821808558902E-001
 0.749733396403414E-001
 0.788903104833555E-001
 0.825510309212391E-001
 0.859722649668141E-001
 0.891696799560372E-001
 0.921579182816254E-001
 0.949506643830370E-001
 0.975607074487061E-001
 0.100000000000000E+000
 0.000000000000000E+000
 0.882176872052691E-002
 0.170664124031985E-001
 0.247716868771246E-001
 0.319728779889629E-001
 0.387029631269666E-001
 0.449927622994657E-001
 0.508710793045835E-001
 0.563648335236331E-001
 0.614991832699968E-001
 0.662976409645869E-001
 0.707821808557991E-001
 0.749733396402438E-001
 0.788903104832527E-001
 0.825510309211322E-001
 0.859722649667040E-001
 0.891696799559248E-001
 0.921579182815116E-001
 0.949506643829223E-001
 0.975607074485912E-001
 0.100000000000000E+000
 0.000000000000000E+000
 0.882176872060889E-002
 0.170664124032507E-001
 0.247716868771505E-001
 0.319728779889656E-001
 0.387029631269491E-001