 TITLE     = "GRIB mesh" 
 VARIABLES = "X", "Y", "Z" 
 ZONE T="BLOCCO 1" 
 I=801, J=  2, K=  2, ZONETYPE=Ordered 
 DATAPACKING=BLOCK 
0.0
0.001249999999997626
0.002499999999995252
0.003749999999992878
0.004999999999990503
0.006249999999988129
0.007499999999985755
0.008749999999983401
0.009999999999981052
0.0112499999999787
0.01249999999997635
0.01374999999997401
0.01499999999997166
0.01624999999996931
0.01749999999996696
0.01874999999996461
0.01999999999996226
0.02124999999995992
0.02249999999995756
0.02374999999995519
0.02499999999995273
0.02624999999995028
0.02749999999994782
0.02874999999994536
0.02999999999994291
0.03124999999994045
0.03249999999993778
0.0337499999999351
0.03499999999993243
0.03624999999992976
0.03749999999992708
0.03874999999992441
0.03999999999992165
0.04124999999991887
0.04249999999991609
0.0437499999999133
0.04499999999991052
0.04624999999990774
0.04749999999990496
0.04874999999990218
0.04999999999989939
0.05124999999989661
0.05249999999989383
0.05374999999989104
0.05499999999988832
0.05624999999988575
0.05749999999988319
0.05874999999988062
0.05999999999987805
0.06124999999987549
0.06249999999987293
0.0637499999998708
0.06499999999986866
0.06624999999986654
0.06749999999986439
0.06874999999986225
0.06999999999986013
0.07124999999985816
0.07249999999985625
0.07374999999985433
0.07499999999985242
0.0762499999998505
0.07749999999984859
0.07874999999984668
0.07999999999984476
0.08124999999984284
0.08249999999984094
0.08374999999983901
0.08499999999983711
0.0862499999998352
0.08749999999983327
0.08874999999983137
0.08999999999982944
0.09124999999982754
0.09249999999982561
0.0937499999998237
0.0949999999998218
0.09624999999981987
0.09749999999981797
0.09874999999981604
0.09999999999981413
0.1012499999998122
0.1024999999998103
0.1037499999998084
0.1049999999998065
0.1062499999998046
0.1074999999998026
0.1087499999998007
0.1099999999997988
0.1112499999997969
0.112499999999795
0.1137499999997931
0.1149999999997912
0.1162499999997892
0.1174999999997872
0.1187499999997849
0.1199999999997825
0.1212499999997802
0.1224999999997778
0.1237499999997755
0.1249999999997731
0.1262499999997699
0.1274999999997667
0.1287499999997635
0.1299999999997603
0.1312499999997571
0.1324999999997538
0.1337499999997503
0.1349999999997466
0.136249999999743
0.1374999999997393
0.1387499999997357
0.1399999999997321
0.1412499999997284
0.1424999999997247
0.1437499999997211
0.1449999999997175
0.1462499999997138
0.1474999999997101
0.1487499999997065
0.1499999999997028
0.1512499999996992
0.1524999999996956
0.1537499999996919
0.1549999999996882
0.1562499999996846
0.157499999999681
0.1587499999996773
0.1599999999996737
0.16124999999967
0.1624999999996664
0.1637499999996627
0.1649999999996591
0.1662499999996554
0.1674999999996518
0.1687499999996481
0.1699999999996445
0.1712499999996408
0.1724999999996372
0.1737499999996335
0.1749999999996299
0.1762499999996262
0.1774999999996226
0.1787499999996189
0.1799999999996153
0.1812499999996116
0.182499999999608
0.1837499999996043
0.1849999999996007
0.186249999999597
0.1874999999995934
0.1887499999995897
0.1899999999995861
0.1912499999995824
0.1924999999995788
0.1937499999995752
0.1949999999995715
0.1962499999995679
0.1974999999995642
0.1987499999995606
0.1999999999995569
0.2012499999995533
0.2024999999995496
0.203749999999546
0.2049999999995423
0.2062499999995387
0.207499999999535
0.2087499999995314
0.2099999999995277
0.2112499999995241
0.2124999999995204
0.2137499999995168
0.2149999999995131
0.2162499999995095
0.2174999999995058
0.2187499999995022
0.2199999999994985
0.2212499999994949
0.2224999999994912
0.2237499999994876
0.2249999999994839
0.2262499999994803
0.2274999999994766
0.228749999999473
0.2299999999994693
0.2312499999994657
0.2324999999994621
0.2337499999994584
0.2349999999994547
0.2362499999994511
0.2374999999994475
0.2387499999994438
0.2399999999994402
0.2412499999994365
0.2424999999994328
0.2437499999994292
0.2449999999994255
0.2462499999994219
0.2474999999994182
0.2487499999994146
0.2499999999994109
0.2512499999994073
0.2524999999994036
0.2537499999994
0.2549999999993964
0.2562499999993927
0.257499999999389
0.2587499999993854
0.2599999999993817
0.2612499999993781
0.2624999999993745
0.2637499999993708
0.2649999999993672
0.2662499999993635
0.2674999999993599
0.2687499999993562
0.2699999999993525
0.2712499999993489
0.2724999999993453
0.2737499999993416
0.2749999999993379
0.2762499999993343
0.2774999999993307
0.278749999999327
0.2799999999993234
0.2812499999993197
0.282499999999316
0.2837499999993124
0.2849999999993088
0.2862499999993052
0.2874999999993015
0.2887499999992978
0.2899999999992942
0.2912499999992905
0.2924999999992869
0.2937499999992833
0.2949999999992796
0.2962499999992759
0.2974999999992723
0.2987499999992687
0.299999999999265
0.3012499999992613
0.3024999999992577
0.303749999999254
0.3049999999992504
0.3062499999992467
0.307499999999243
0.3087499999992395
0.3099999999992358
0.3112499999992322
0.3124999999992285
0.3137499999992248
0.3149999999992212
0.3162499999992175
0.3174999999992139
0.3187499999992103
0.3199999999992066
0.321249999999203
0.3224999999991993
0.3237499999991957
0.324999999999192
0.3262499999991884
0.3274999999991847
0.328749999999181
0.3299999999991775
0.3312499999991738
0.3324999999991701
0.3337499999991665
0.3349999999991628
0.3362499999991592
0.3374999999991555
0.3387499999991518
0.3399999999991483
0.3412499999991446
0.3424999999991409
0.3437499999991373
0.3449999999991336
0.34624999999913
0.3474999999991263
0.3487499999991227
0.349999999999119
0.3512499999991154
0.3524999999991117
0.3537499999991081
0.3549999999991045
0.3562499999991008
0.3574999999990972
0.3587499999990935
0.3599999999990898
0.3612499999990862
0.3624999999990826
0.3637499999990789
0.3649999999990753
0.3662499999990716
0.367499999999068
0.3687499999990643
0.3699999999990606
0.371249999999057
0.3724999999990534
0.3737499999990497
0.374999999999046
0.3762499999990424
0.3774999999990388
0.3787499999990351
0.3799999999990315
0.3812499999990278
0.3824999999990242
0.3837499999990205
0.3849999999990169
0.3862499999990133
0.3874999999990096
0.3887499999990059
0.3899999999990023
0.3912499999989986
0.392499999998995
0.3937499999989914
0.3949999999989877
0.396249999998984
0.3974999999989804
0.3987499999989768
0.3999999999989731
0.4012499999989694
0.4024999999989658
0.4037499999989622
0.4049999999989585
0.4062499999989548
0.4074999999989512
0.4087499999989476
0.4099999999989439
0.4112499999989403
0.4124999999989366
0.4137499999989329
0.4149999999989293
0.4162499999989256
0.417499999998922
0.4187499999989184
0.4199999999989147
0.4212499999989111
0.4224999999989074
0.4237499999989038
0.4249999999989001
0.4262499999988965
0.4274999999988928
0.4287499999988892
0.4299999999988856
0.4312499999988819
0.4324999999988782
0.4337499999988746
0.4349999999988709
0.4362499999988673
0.4374999999988636
0.4387499999988599
0.4399999999988564
0.4412499999988527
0.442499999998849
0.4437499999988454
0.4449999999988417
0.4462499999988381
0.4474999999988344
0.4487499999988308
0.4499999999988272
0.4512499999988235
0.4524999999988198
0.4537499999988162
0.4549999999988126
0.4562499999988089
0.4574999999988053
0.4587499999988016
0.4599999999987979
0.4612499999987943
0.4624999999987907
0.463749999998787
0.4649999999987834
0.4662499999987797
0.4674999999987761
0.4687499999987724
0.4699999999987687
0.4712499999987652
0.4724999999987615
0.4737499999987578
0.4749999999987542
0.4762499999987505
0.4774999999987469
0.4787499999987432
0.4799999999987396
0.4812499999987359
0.4824999999987323
0.4837499999987286
0.484999999998725
0.4862499999987214
0.4874999999987177
0.488749999998714
0.4899999999987104
0.4912499999987067
0.4924999999987035
0.4937499999987016
0.4949999999986997
0.4962499999986978
0.4974999999986959
0.498749999998694
0.4999999999986921
0.5012499999986936
0.5024999999986952
0.5037499999986967
0.5049999999986983
0.5062499999986998
0.5074999999987013
0.5087499999987043
0.5099999999987076
0.5112499999987109
0.5124999999987142
0.5137499999987174
0.5149999999987207
0.5162499999987241
0.5174999999987274
0.5187499999987306
0.5199999999987339
0.5212499999987372
0.5224999999987405
0.5237499999987438
0.5249999999987471
0.5262499999987504
0.5274999999987537
0.5287499999987569
0.5299999999987604
0.5312499999987637
0.532499999998767
0.5337499999987703
0.5349999999987735
0.5362499999987768
0.5374999999987802
0.5387499999987835
0.5399999999987867
0.54124999999879
0.5424999999987933
0.5437499999987966
0.5449999999987999
0.5462499999988032
0.5474999999988065
0.5487499999988098
0.549999999998813
0.5512499999988164
0.5524999999988197
0.553749999998823
0.5549999999988262
0.5562499999988295
0.5574999999988328
0.5587499999988362
0.5599999999988394
0.5612499999988427
0.562499999998846
0.5637499999988493
0.5649999999988526
0.566249999998856
0.5674999999988593
0.5687499999988626
0.5699999999988659
0.571249999998869
0.5724999999988725
0.5737499999988758
0.5749999999988791
0.5762499999988823
0.5774999999988856
0.5787499999988889
0.5799999999988923
0.5812499999988955
0.5824999999988988
0.5837499999989021
0.5849999999989054
0.5862499999989086
0.587499999998912
0.5887499999989153
0.5899999999989186
0.5912499999989218
0.5924999999989251
0.5937499999989284
0.5949999999989318
0.5962499999989351
0.5974999999989383
0.5987499999989416
0.5999999999989449
0.6012499999989483
0.6024999999989515
0.6037499999989548
0.6049999999989581
0.6062499999989615
0.6074999999989646
0.6087499999989681
0.6099999999989714
0.6112499999989747
0.6124999999989779
0.6137499999989812
0.6149999999989845
0.6162499999989879
0.6174999999989911
0.6187499999989944
0.6199999999989977
0.621249999999001
0.6224999999990043
0.6237499999990076
0.6249999999990109
0.6262499999990142
0.6274999999990175
0.6287499999990207
0.6299999999990241
0.6312499999990274
0.6324999999990307
0.6337499999990339
0.6349999999990372
0.6362499999990405
0.6374999999990439
0.6387499999990471
0.6399999999990504
0.6412499999990537
0.642499999999057
0.6437499999990604
0.6449999999990637
0.646249999999067
0.6474999999990703
0.6487499999990735
0.6499999999990768
0.6512499999990802
0.6524999999990835
0.6537499999990867
0.65499999999909
0.6562499999990933
0.6574999999990966
0.6587499999991
0.6599999999991032
0.6612499999991065
0.6624999999991098
0.6637499999991131
0.6649999999991164
0.6662499999991197
0.667499999999123
0.6687499999991263
0.6699999999991295
0.6712499999991328
0.6724999999991362
0.6737499999991395
0.6749999999991427
0.676249999999146
0.6774999999991493
0.6787499999991526
0.679999999999156
0.6812499999991593
0.6824999999991626
0.6837499999991659
0.684999999999169
0.6862499999991725
0.6874999999991758
0.6887499999991791
0.6899999999991824
0.6912499999991856
0.6924999999991889
0.6937499999991923
0.6949999999991956
0.6962499999991988
0.6974999999992021
0.6987499999992054
0.6999999999992087
0.701249999999212
0.7024999999992153
0.7037499999992186
0.7049999999992219
0.7062499999992251
0.7074999999992284
0.7087499999992318
0.7099999999992351
0.7112499999992383
0.7124999999992416
0.7137499999992449
0.7149999999992483
0.7162499999992515
0.7174999999992548
0.7187499999992581
0.7199999999992615
0.7212499999992648
0.7224999999992681
0.7237499999992714
0.7249999999992747
0.726249999999278
0.7274999999992812
0.7287499999992845
0.7299999999992879
0.7312499999992912
0.7324999999992944
0.7337499999992977
0.734999999999301
0.7362499999993044
0.7374999999993076
0.7387499999993109
0.7399999999993142
0.7412499999993175
0.7424999999993207
0.7437499999993241
0.7449999999993274
0.7462499999993307
0.7474999999993339
0.7487499999993372
0.7499999999993405
0.7512499999993439
0.7524999999993472
0.7537499999993504
0.7549999999993537
0.756249999999357
0.7574999999993605
0.7587499999993637
0.759999999999367
0.7612499999993703
0.7624999999993736
0.7637499999993768
0.7649999999993802
0.7662499999993835
0.7674999999993868
0.76874999999939
0.7699999999993933
0.7712499999993966
0.7724999999994
0.7737499999994032
0.7749999999994065
0.7762499999994098
0.7774999999994131
0.7787499999994164
0.7799999999994197
0.781249999999423
0.7824999999994263
0.7837499999994296
0.7849999999994328
0.7862499999994362
0.7874999999994395
0.7887499999994428
0.789999999999446
0.7912499999994493
0.7924999999994526
0.7937499999994561
0.7949999999994593
0.7962499999994626
0.7974999999994659
0.7987499999994692
0.7999999999994724
0.8012499999994758
0.8024999999994791
0.8037499999994824
0.8049999999994856
0.8062499999994889
0.8074999999994923
0.8087499999994956
0.8099999999994988
0.8112499999995021
0.8124999999995054
0.8137499999995087
0.8149999999995121
0.8162499999995153
0.8174999999995186
0.8187499999995219
0.8199999999995252
0.8212499999995284
0.8224999999995318
0.8237499999995351
0.8249999999995384
0.8262499999995416
0.8274999999995449
0.8287499999995483
0.8299999999995517
0.8312499999995548
0.8324999999995581
0.8337499999995615
0.8349999999995648
0.8362499999995681
0.8374999999995714
0.8387499999995747
0.839999999999578
0.8412499999995812
0.8424999999995845
0.8437499999995879
0.8449999999995912
0.8462499999995945
0.8474999999995977
0.848749999999601
0.8499999999996044
0.8512499999996077
0.8524999999996109
0.8537499999996142
0.8549999999996175
0.8562499999996208
0.8574999999996241
0.8587499999996274
0.8599999999996307
0.861249999999634
0.8624999999996372
0.8637499999996405
0.8649999999996439
0.8662499999996472
0.8674999999996504
0.8687499999996537
0.869999999999657
0.8712499999996605
0.8724999999996637
0.873749999999667
0.8749999999996703
0.8762499999996736
0.8774999999996769
0.8787499999996802
0.8799999999996835
0.8812499999996868
0.8824999999996901
0.8837499999996933
0.8849999999996966
0.8862499999997
0.8874999999997033
0.8887499999997065
0.8899999999997098
0.8912499999997131
0.8924999999997165
0.8937499999997197
0.894999999999723
0.8962499999997263
0.8974999999997296
0.8987499999997328
0.8999999999997362
0.9012499999997395
0.9024999999997428
0.903749999999746
0.9049999999997493
0.9062499999997526
0.9074999999997561
0.9087499999997594
0.9099999999997626
0.9112499999997659
0.9124999999997692
0.9137499999997725
0.9149999999997758
0.9162499999997791
0.9174999999997824
0.9187499999997857
0.9199999999997889
0.9212499999997923
0.9224999999997956
0.9237499999997989
0.9249999999998021
0.9262499999998054
0.9274999999998087
0.9287499999998121
0.9299999999998153
0.9312499999998186
0.9324999999998219
0.9337499999998252
0.9349999999998284
0.9362499999998318
0.9374999999998351
0.9387499999998384
0.9399999999998417
0.9412499999998449
0.9424999999998483
0.9437499999998517
0.944999999999855
0.9462499999998581
0.9474999999998615
0.9487499999998648
0.9499999999998682
0.9512499999998714
0.9524999999998747
0.953749999999878
0.9549999999998813
0.9562499999998845
0.9574999999998879
0.9587499999998912
0.9599999999998945
0.9612499999998977
0.962499999999901
0.9637499999999044
0.9649999999999077
0.9662499999999109
0.9674999999999142
0.9687499999999175
0.9699999999999208
0.9712499999999242
0.9724999999999274
0.9737499999999307
0.974999999999934
0.9762499999999373
0.9774999999999405
0.9787499999999439
0.9799999999999472
0.9812499999999506
0.9824999999999537
0.983749999999957
0.9849999999999605
0.9862499999999638
0.987499999999967
0.9887499999999703
0.9899999999999736
0.9912499999999769
0.9924999999999802
0.9937499999999835
0.9949999999999868
0.9962499999999901
0.9974999999999933
0.9987499999999966
1.0
0.0
0.001250000000005191
0.002500000000010383
0.003750000000015685
0.005000000000020877
0.006250000000025957
0.007500000000031148
0.00875000000003634
0.01000000000004164
0.01125000000004683
0.01250000000005203
0.01375000000005722
0.01500000000006252
0.0162500000000676
0.01750000000007279
0.01875000000007798
0.02000000000008317
0.02125000000008848
0.02250000000009367
0.02375000000009886
0.02500000000010405
0.02625000000010924
0.02750000000011443
0.02875000000011962
0.03000000000012482
0.03125000000013001
0.03250000000013531
0.0337500000001405
0.03500000000014569
0.03625000000015088
0.03750000000015608
0.03875000000016127
0.04000000000016646
0.04125000000017165
0.04250000000017684
0.04375000000018214
0.04500000000018733
0.04625000000019253
0.04750000000019761
0.04875000000020291
0.0500000000002081
0.05125000000021329
0.05250000000021848
0.05375000000022367
0.05500000000022898
0.05625000000023417
0.05750000000023925
0.05875000000024444
0.06000000000024974
0.06125000000025493
0.06250000000026013
0.06375000000026532
0.06500000000027051
0.06625000000027581
0.067500000000281
0.06875000000028608
0.07000000000029127
0.07125000000029658
0.07250000000030177
0.07375000000030696
0.07500000000031215
0.07625000000031734
0.07750000000032264
0.07875000000032772
0.08000000000033292
0.08125000000033811
0.08250000000034341
0.0837500000003486
0.08500000000035379
0.08625000000035898
0.08750000000036418
0.08875000000036937
0.09000000000037456
0.09125000000037975
0.09250000000038494
0.09375000000039024
0.09500000000039543
0.09625000000040063
0.09750000000040582
0.09875000000041101
0.1000000000004162
0.1012500000004214
0.1025000000004266
0.1037500000004318
0.1050000000004371
0.1062500000004423
0.1075000000004475
0.1087500000004527
0.1100000000004577
0.111250000000463
0.1125000000004682
0.1137500000004734
0.1150000000004786
0.1162500000004839
0.1175000000004891
0.1187500000004943
0.1200000000004994
0.1212500000005046
0.1225000000005099
0.1237500000005151
0.1250000000005203
0.1262500000005254
0.1275000000005307
0.1287500000005359
0.1300000000005411
0.1312500000005462
0.1325000000005514
0.1337500000005567
0.1350000000005619
0.1362500000005671
0.1375000000005723
0.1387500000005776
0.1400000000005828
0.1412500000005878
0.142500000000593
0.1437500000005982
0.1450000000006035
0.1462500000006087
0.1475000000006139
0.1487500000006191
0.1500000000006244
0.1512500000006295
0.1525000000006347
0.1537500000006399
0.1550000000006451
0.1562500000006504
0.1575000000006556
0.1587500000006608
0.1600000000006659
0.1612500000006712
0.1625000000006763
0.1637500000006815
0.1650000000006867
0.1662500000006919
0.1675000000006972
0.1687500000007024
0.1700000000007076
0.1712500000007128
0.172500000000718
0.1737500000007232
0.1750000000007284
0.1762500000007335
0.1775000000007387
0.178750000000744
0.1800000000007492
0.1812500000007544
0.1825000000007595
0.1837500000007648
0.18500000000077
0.1862500000007752
0.1875000000007804
0.1887500000007856
0.1900000000007909
0.1912500000007961
0.1925000000008013
0.1937500000008063
0.1950000000008116
0.1962500000008168
0.197500000000822
0.1987500000008272
0.2000000000008325
0.2012500000008377
0.2025000000008429
0.203750000000848
0.2050000000008532
0.2062500000008585
0.2075000000008637
0.2087500000008689
0.210000000000874
0.2112500000008793
0.2125000000008845
0.2137500000008896
0.2150000000008948
0.2162500000009
0.2175000000009053
0.2187500000009105
0.2200000000009157
0.2212500000009209
0.2225000000009262
0.2237500000009314
0.2250000000009365
0.2262500000009416
0.2275000000009468
0.2287500000009521
0.2300000000009573
0.2312500000009625
0.2325000000009677
0.233750000000973
0.2350000000009781
0.2362500000009833
0.2375000000009885
0.2387500000009937
0.240000000000999
0.2412500000010042
0.2425000000010094
0.2437500000010145
0.2450000000010197
0.2462500000010249
0.2475000000010301
0.2487500000010353
0.2500000000010405
0.2512500000010458
0.252500000001051
0.2537500000010562
0.2550000000010614
0.2562500000010666
0.2575000000010718
0.258750000001077
0.2600000000010821
0.2612500000010873
0.2625000000010926
0.2637500000010978
0.265000000001103
0.2662500000011081
0.2675000000011134
0.2687500000011186
0.2700000000011238
0.271250000001129
0.2725000000011342
0.2737500000011395
0.2750000000011447
0.2762500000011497
0.2775000000011549
0.2787500000011602
0.2800000000011654
0.2812500000011706
0.2825000000011758
0.283750000001181
0.2850000000011863
0.2862500000011915
0.2875000000011966
0.2887500000012018
0.2900000000012071
0.2912500000012123
0.2925000000012175
0.2937500000012226
0.2950000000012278
0.2962500000012331
0.2975000000012382
0.2987500000012434
0.3000000000012486
0.3012500000012539
0.3025000000012591
0.3037500000012643
0.3050000000012695
0.3062500000012747
0.3075000000012799
0.3087500000012851
0.3100000000012902
0.3112500000012954
0.3125000000013007
0.3137500000013059
0.3150000000013111
0.3162500000013163
0.3175000000013215
0.3187500000013267
0.3200000000013319
0.3212500000013371
0.3225000000013423
0.3237500000013476
0.3250000000013528
0.326250000001358
0.3275000000013631
0.3287500000013682
0.3300000000013735
0.3312500000013787
0.3325000000013839
0.3337500000013891
0.3350000000013944
0.3362500000013996
0.3375000000014048
0.3387500000014099
0.3400000000014151
0.3412500000014204
0.3425000000014256
0.3437500000014307
0.3450000000014359
0.3462500000014412
0.3475000000014464
0.3487500000014516
0.3500000000014567
0.3512500000014619
0.3525000000014672
0.3537500000014724
0.3550000000014776
0.3562500000014828
0.3575000000014881
0.3587500000014933
0.3600000000014983
0.3612500000015035
0.3625000000015087
0.363750000001514
0.3650000000015192
0.3662500000015244
0.3675000000015296
0.3687500000015349
0.37000000000154
0.3712500000015452
0.3725000000015504
0.3737500000015556
0.3750000000015609
0.3762500000015661
0.3775000000015712
0.3787500000015764
0.3800000000015817
0.3812500000015868
0.382500000001592
0.3837500000015972
0.3850000000016024
0.3862500000016077
0.3875000000016129
0.3887500000016181
0.3900000000016233
0.3912500000016285
0.3925000000016337
0.3937500000016388
0.395000000001644
0.3962500000016492
0.3975000000016545
0.3987500000016597
0.4000000000016649
0.40125000000167
0.4025000000016753
0.4037500000016805
0.4050000000016857
0.4062500000016909
0.4075000000016961
0.4087500000017014
0.4100000000017066
0.4112500000017117
0.4125000000017168
0.4137500000017221
0.4150000000017273
0.4162500000017325
0.4175000000017377
0.4187500000017429
0.4200000000017482
0.4212500000017534
0.4225000000017585
0.4237500000017637
0.425000000001769
0.4262500000017742
0.4275000000017793
0.4287500000017845
0.4300000000017897
0.431250000001795
0.4325000000018001
0.4337500000018053
0.4350000000018105
0.4362500000018158
0.437500000001821
0.4387500000018262
0.4400000000018314
0.4412500000018366
0.4425000000018419
0.4437500000018469
0.4450000000018521
0.4462500000018573
0.4475000000018626
0.4487500000018678
0.450000000001873
0.4512500000018782
0.4525000000018834
0.4537500000018886
0.4550000000018938
0.456250000001899
0.4575000000019042
0.4587500000019095
0.4600000000019147
0.4612500000019198
0.462500000001925
0.4637500000019301
0.4650000000019354
0.4662500000019406
0.4675000000019458
0.468750000001951
0.4700000000019563
0.4712500000019615
0.4725000000019667
0.4737500000019719
0.475000000001977
0.4762500000019823
0.4775000000019874
0.4787500000019926
0.4800000000019978
0.4812500000020031
0.4825000000020083
0.4837500000020135
0.4850000000020186
0.4862500000020238
0.4875000000020291
0.4887500000020343
0.4900000000020395
0.4912500000020447
0.4925000000020491
0.4937500000020508
0.4950000000020525
0.4962500000020542
0.497500000002056
0.4987500000020577
0.5000000000020595
0.5012500000020542
0.502500000002049
0.5037500000020438
0.5050000000020387
0.5062500000020334
0.5075000000020282
0.5087500000020204
0.5100000000020117
0.511250000002003
0.5125000000019944
0.5137500000019857
0.515000000001977
0.5162500000019684
0.5175000000019597
0.5187500000019512
0.5200000000019424
0.5212500000019337
0.5225000000019251
0.5237500000019164
0.5250000000019077
0.526250000001899
0.5275000000018903
0.5287500000018817
0.530000000001873
0.5312500000018643
0.5325000000018556
0.533750000001847
0.5350000000018383
0.5362500000018297
0.537500000001821
0.5387500000018124
0.5400000000018037
0.541250000001795
0.5425000000017863
0.5437500000017776
0.545000000001769
0.5462500000017603
0.5475000000017516
0.5487500000017429
0.5500000000017343
0.5512500000017255
0.552500000001717
0.5537500000017083
0.5550000000016996
0.556250000001691
0.5575000000016823
0.5587500000016736
0.5600000000016649
0.5612500000016563
0.5625000000016476
0.5637500000016389
0.5650000000016302
0.5662500000016215
0.5675000000016128
0.5687500000016041
0.5700000000015956
0.5712500000015869
0.5725000000015783
0.5737500000015696
0.5750000000015609
0.5762500000015522
0.5775000000015436
0.5787500000015349
0.5800000000015262
0.5812500000015175
0.5825000000015088
0.5837500000015001
0.5850000000014914
0.5862500000014829
0.5875000000014742
0.5887500000014655
0.5900000000014568
0.5912500000014481
0.5925000000014395
0.5937500000014309
0.5950000000014222
0.5962500000014135
0.5975000000014048
0.5987500000013961
0.6000000000013874
0.6012500000013787
0.60250000000137
0.6037500000013615
0.6050000000013528
0.6062500000013441
0.6075000000013354
0.6087500000013268
0.6100000000013182
0.6112500000013095
0.6125000000013008
0.6137500000012921
0.6150000000012834
0.6162500000012747
0.617500000001266
0.6187500000012573
0.6200000000012488
0.62125000000124
0.6225000000012314
0.6237500000012227
0.625000000001214
0.6262500000012055
0.6275000000011968
0.6287500000011881
0.6300000000011794
0.6312500000011707
0.632500000001162
0.6337500000011533
0.6350000000011446
0.636250000001136
0.6375000000011273
0.6387500000011186
0.64000000000111
0.6412500000011013
0.6425000000010928
0.6437500000010841
0.6450000000010754
0.6462500000010667
0.647500000001058
0.6487500000010493
0.6500000000010406
0.651250000001032
0.6525000000010233
0.6537500000010146
0.6550000000010059
0.6562500000009973
0.6575000000009886
0.6587500000009799
0.6600000000009714
0.6612500000009626
0.662500000000954
0.6637500000009453
0.6650000000009366
0.6662500000009279
0.6675000000009192
0.6687500000009106
0.6700000000009019
0.6712500000008932
0.6725000000008845
0.6737500000008759
0.6750000000008672
0.6762500000008586
0.6775000000008499
0.6787500000008413
0.6800000000008326
0.6812500000008239
0.6825000000008152
0.6837500000008065
0.6850000000007979
0.6862500000007892
0.6875000000007805
0.6887500000007718
0.6900000000007632
0.6912500000007545
0.6925000000007457
0.6937500000007372
0.6950000000007285
0.6962500000007199
0.6975000000007112
0.6987500000007025
0.7000000000006938
0.7012500000006852
0.7025000000006765
0.7037500000006678
0.7050000000006591
0.7062500000006504
0.7075000000006417
0.708750000000633
0.7100000000006245
0.7112500000006158
0.7125000000006072
0.7137500000005985
0.7150000000005897
0.7162500000005811
0.7175000000005725
0.7187500000005638
0.7200000000005551
0.7212500000005464
0.7225000000005377
0.723750000000529
0.7250000000005203
0.7262500000005117
0.7275000000005031
0.7287500000004944
0.7300000000004858
0.731250000000477
0.7325000000004684
0.7337500000004598
0.7350000000004511
0.7362500000004424
0.7375000000004337
0.738750000000425
0.7400000000004163
0.7412500000004076
0.742500000000399
0.7437500000003904
0.7450000000003817
0.746250000000373
0.7475000000003643
0.7487500000003556
0.7500000000003471
0.7512500000003384
0.7525000000003297
0.753750000000321
0.7550000000003123
0.7562500000003036
0.7575000000002949
0.7587500000002863
0.7600000000002776
0.7612500000002689
0.7625000000002602
0.7637500000002516
0.7650000000002429
0.7662500000002342
0.7675000000002256
0.7687500000002169
0.7700000000002082
0.7712500000001995
0.7725000000001908
0.7737500000001822
0.7750000000001736
0.7762500000001649
0.7775000000001562
0.7787500000001475
0.7800000000001388
0.7812500000001301
0.7825000000001214
0.7837500000001127
0.7850000000001041
0.7862500000000954
0.7875000000000868
0.788750000000078
0.7900000000000694
0.7912500000000607
0.792500000000052
0.7937500000000434
0.7950000000000347
0.796250000000026
0.7975000000000174
0.7987500000000087
0.8
0.8012499999999914
0.8024999999999827
0.803749999999974
0.8049999999999653
0.8062499999999566
0.8074999999999479
0.8087499999999392
0.8099999999999306
0.8112499999999219
0.8124999999999132
0.8137499999999046
0.8149999999998959
0.8162499999998872
0.8174999999998785
0.8187499999998699
0.8199999999998612
0.8212499999998526
0.8224999999998439
0.8237499999998352
0.8249999999998265
0.8262499999998179
0.8274999999998092
0.8287499999998005
0.8299999999997918
0.8312499999997831
0.8324999999997744
0.8337499999997657
0.834999999999757
0.8362499999997484
0.8374999999997397
0.8387499999997311
0.8399999999997224
0.8412499999997137
0.842499999999705
0.8437499999996964
0.8449999999996878
0.846249999999679
0.8474999999996704
0.8487499999996617
0.849999999999653
0.8512499999996443
0.8524999999996357
0.853749999999627
0.8549999999996183
0.8562499999996096
0.8574999999996009
0.8587499999995922
0.8599999999995835
0.8612499999995749
0.8624999999995663
0.8637499999995576
0.8649999999995489
0.8662499999995402
0.8674999999995324
0.8687499999995272
0.869999999999522
0.8712499999995168
0.8724999999995116
0.8737499999995064
0.8749999999995012
0.8762499999995029
0.8774999999995047
0.8787499999995064
0.8799999999995082
0.8812499999995099
0.8824999999995116
0.883749999999516
0.8849999999995212
0.8862499999995264
0.8874999999995316
0.8887499999995367
0.8899999999995419
0.8912499999995471
0.8924999999995524
0.8937499999995576
0.8949999999995628
0.896249999999568
0.8974999999995732
0.8987499999995784
0.8999999999995836
0.9012499999995888
0.902499999999594
0.9037499999995993
0.9049999999996045
0.9062499999996096
0.9074999999996148
0.90874999999962
0.9099999999996252
0.9112499999996304
0.9124999999996357
0.9137499999996409
0.9149999999996461
0.9162499999996513
0.9174999999996565
0.9187499999996617
0.9199999999996669
0.921249999999672
0.9224999999996774
0.9237499999996825
0.9249999999996877
0.9262499999996929
0.9274999999996981
0.9287499999997033
0.9299999999997085
0.9312499999997137
0.932499999999719
0.9337499999997242
0.9349999999997294
0.9362499999997346
0.9374999999997398
0.938749999999745
0.9399999999997501
0.9412499999997553
0.9424999999997605
0.9437499999997658
0.944999999999771
0.9462499999997762
0.9474999999997814
0.9487499999997866
0.9499999999997918
0.951249999999797
0.9524999999998023
0.9537499999998075
0.9549999999998127
0.9562499999998179
0.957499999999823
0.9587499999998282
0.9599999999998334
0.9612499999998386
0.9624999999998438
0.9637499999998491
0.9649999999998543
0.9662499999998595