 TITLE     = "GRIB mesh" 
 VARIABLES = "X", "Y", "Z" 
 ZONE T="BLOCCO 1" 
 I=401, J=  2, K=  2, ZONETYPE=Ordered 
 DATAPACKING=BLOCK 
0.0
0.002499999999995252
0.004999999999990503
0.007499999999985755
0.009999999999981052
0.01249999999997635
0.01499999999997166
0.01749999999996696
0.01999999999996226
0.02249999999995756
0.02499999999995273
0.02749999999994782
0.02999999999994291
0.03249999999993778
0.03499999999993243
0.03749999999992708
0.03999999999992165
0.04249999999991609
0.04499999999991052
0.04749999999990496
0.04999999999989939
0.05249999999989383
0.05499999999988832
0.05749999999988319
0.05999999999987805
0.06249999999987293
0.06499999999986866
0.06749999999986439
0.06999999999986013
0.07249999999985625
0.07499999999985242
0.07749999999984859
0.07999999999984476
0.08249999999984094
0.08499999999983711
0.08749999999983327
0.08999999999982944
0.09249999999982561
0.0949999999998218
0.09749999999981797
0.09999999999981413
0.1024999999998103
0.1049999999998065
0.1074999999998026
0.1099999999997988
0.112499999999795
0.1149999999997912
0.1174999999997872
0.1199999999997825
0.1224999999997778
0.1249999999997731
0.1274999999997667
0.1299999999997603
0.1324999999997538
0.1349999999997466
0.1374999999997393
0.1399999999997321
0.1424999999997247
0.1449999999997175
0.1474999999997101
0.1499999999997028
0.1524999999996956
0.1549999999996882
0.157499999999681
0.1599999999996737
0.1624999999996664
0.1649999999996591
0.1674999999996518
0.1699999999996445
0.1724999999996372
0.1749999999996299
0.1774999999996226
0.1799999999996153
0.182499999999608
0.1849999999996007
0.1874999999995934
0.1899999999995861
0.1924999999995788
0.1949999999995715
0.1974999999995642
0.1999999999995569
0.2024999999995496
0.2049999999995423
0.207499999999535
0.2099999999995277
0.2124999999995204
0.2149999999995131
0.2174999999995058
0.2199999999994985
0.2224999999994912
0.2249999999994839
0.2274999999994766
0.2299999999994693
0.2324999999994621
0.2349999999994547
0.2374999999994475
0.2399999999994402
0.2424999999994328
0.2449999999994255
0.2474999999994182
0.2499999999994109
0.2524999999994036
0.2549999999993964
0.257499999999389
0.2599999999993817
0.2624999999993745
0.2649999999993672
0.2674999999993599
0.2699999999993525
0.2724999999993453
0.2749999999993379
0.2774999999993307
0.2799999999993234
0.282499999999316
0.2849999999993088
0.2874999999993015
0.2899999999992942
0.2924999999992869
0.2949999999992796
0.2974999999992723
0.299999999999265
0.3024999999992577
0.3049999999992504
0.307499999999243
0.3099999999992358
0.3124999999992285
0.3149999999992212
0.3174999999992139
0.3199999999992066
0.3224999999991993
0.324999999999192
0.3274999999991847
0.3299999999991775
0.3324999999991701
0.3349999999991628
0.3374999999991555
0.3399999999991483
0.3424999999991409
0.3449999999991336
0.3474999999991263
0.349999999999119
0.3524999999991117
0.3549999999991045
0.3574999999990972
0.3599999999990898
0.3624999999990826
0.3649999999990753
0.367499999999068
0.3699999999990606
0.3724999999990534
0.374999999999046
0.3774999999990388
0.3799999999990315
0.3824999999990242
0.3849999999990169
0.3874999999990096
0.3899999999990023
0.392499999998995
0.3949999999989877
0.3974999999989804
0.3999999999989731
0.4024999999989658
0.4049999999989585
0.4074999999989512
0.4099999999989439
0.4124999999989366
0.4149999999989293
0.417499999998922
0.4199999999989147
0.4224999999989074
0.4249999999989001
0.4274999999988928
0.4299999999988856
0.4324999999988782
0.4349999999988709
0.4374999999988636
0.4399999999988564
0.442499999998849
0.4449999999988417
0.4474999999988344
0.4499999999988272
0.4524999999988198
0.4549999999988126
0.4574999999988053
0.4599999999987979
0.4624999999987907
0.4649999999987834
0.4674999999987761
0.4699999999987687
0.4724999999987615
0.4749999999987542
0.4774999999987469
0.4799999999987396
0.4824999999987323
0.484999999998725
0.4874999999987177
0.4899999999987104
0.4924999999987035
0.4949999999986997
0.4974999999986959
0.4999999999986921
0.5024999999986952
0.5049999999986983
0.5074999999987013
0.5099999999987076
0.5124999999987142
0.5149999999987207
0.5174999999987274
0.5199999999987339
0.5224999999987405
0.5249999999987471
0.5274999999987537
0.5299999999987604
0.532499999998767
0.5349999999987735
0.5374999999987802
0.5399999999987867
0.5424999999987933
0.5449999999987999
0.5474999999988065
0.549999999998813
0.5524999999988197
0.5549999999988262
0.5574999999988328
0.5599999999988394
0.562499999998846
0.5649999999988526
0.5674999999988593
0.5699999999988659
0.5724999999988725
0.5749999999988791
0.5774999999988856
0.5799999999988923
0.5824999999988988
0.5849999999989054
0.587499999998912
0.5899999999989186
0.5924999999989251
0.5949999999989318
0.5974999999989383
0.5999999999989449
0.6024999999989515
0.6049999999989581
0.6074999999989646
0.6099999999989714
0.6124999999989779
0.6149999999989845
0.6174999999989911
0.6199999999989977
0.6224999999990043
0.6249999999990109
0.6274999999990175
0.6299999999990241
0.6324999999990307
0.6349999999990372
0.6374999999990439
0.6399999999990504
0.642499999999057
0.6449999999990637
0.6474999999990703
0.6499999999990768
0.6524999999990835
0.65499999999909
0.6574999999990966
0.6599999999991032
0.6624999999991098
0.6649999999991164
0.667499999999123
0.6699999999991295
0.6724999999991362
0.6749999999991427
0.6774999999991493
0.679999999999156
0.6824999999991626
0.684999999999169
0.6874999999991758
0.6899999999991824
0.6924999999991889
0.6949999999991956
0.6974999999992021
0.6999999999992087
0.7024999999992153
0.7049999999992219
0.7074999999992284
0.7099999999992351
0.7124999999992416
0.7149999999992483
0.7174999999992548
0.7199999999992615
0.7224999999992681
0.7249999999992747
0.7274999999992812
0.7299999999992879
0.7324999999992944
0.734999999999301
0.7374999999993076
0.7399999999993142
0.7424999999993207
0.7449999999993274
0.7474999999993339
0.7499999999993405
0.7524999999993472
0.7549999999993537
0.7574999999993605
0.759999999999367
0.7624999999993736
0.7649999999993802
0.7674999999993868
0.7699999999993933
0.7724999999994
0.7749999999994065
0.7774999999994131
0.7799999999994197
0.7824999999994263
0.7849999999994328
0.7874999999994395
0.789999999999446
0.7924999999994526
0.7949999999994593
0.7974999999994659
0.7999999999994724
0.8024999999994791
0.8049999999994856
0.8074999999994923
0.8099999999994988
0.8124999999995054
0.8149999999995121
0.8174999999995186
0.8199999999995252
0.8224999999995318
0.8249999999995384
0.8274999999995449
0.8299999999995517
0.8324999999995581
0.8349999999995648
0.8374999999995714
0.839999999999578
0.8424999999995845
0.8449999999995912
0.8474999999995977
0.8499999999996044
0.8524999999996109
0.8549999999996175
0.8574999999996241
0.8599999999996307
0.8624999999996372
0.8649999999996439
0.8674999999996504
0.869999999999657
0.8724999999996637
0.8749999999996703
0.8774999999996769
0.8799999999996835
0.8824999999996901
0.8849999999996966
0.8874999999997033
0.8899999999997098
0.8924999999997165
0.894999999999723
0.8974999999997296
0.8999999999997362
0.9024999999997428
0.9049999999997493
0.9074999999997561
0.9099999999997626
0.9124999999997692
0.9149999999997758
0.9174999999997824
0.9199999999997889
0.9224999999997956
0.9249999999998021
0.9274999999998087
0.9299999999998153
0.9324999999998219
0.9349999999998284
0.9374999999998351
0.9399999999998417
0.9424999999998483
0.944999999999855
0.9474999999998615
0.9499999999998682
0.9524999999998747
0.9549999999998813
0.9574999999998879
0.9599999999998945
0.962499999999901
0.9649999999999077
0.9674999999999142
0.9699999999999208
0.9724999999999274
0.974999999999934
0.9774999999999405
0.9799999999999472
0.9824999999999537
0.9849999999999605
0.987499999999967
0.9899999999999736
0.9924999999999802
0.9949999999999868
0.9974999999999933
1.0
0.0
0.002500000000010383
0.005000000000020877
0.007500000000031148
0.01000000000004164
0.01250000000005203
0.01500000000006252
0.01750000000007279
0.02000000000008317
0.02250000000009367
0.02500000000010405
0.02750000000011443
0.03000000000012482
0.03250000000013531
0.03500000000014569
0.03750000000015608
0.04000000000016646
0.04250000000017684
0.04500000000018733
0.04750000000019761
0.0500000000002081
0.05250000000021848
0.05500000000022898
0.05750000000023925
0.06000000000024974
0.06250000000026013
0.06500000000027051
0.067500000000281
0.07000000000029127
0.07250000000030177
0.07500000000031215
0.07750000000032264
0.08000000000033292
0.08250000000034341
0.08500000000035379
0.08750000000036418
0.09000000000037456
0.09250000000038494
0.09500000000039543
0.09750000000040582
0.1000000000004162
0.1025000000004266
0.1050000000004371
0.1075000000004475
0.1100000000004577
0.1125000000004682
0.1150000000004786
0.1175000000004891
0.1200000000004994
0.1225000000005099
0.1250000000005203
0.1275000000005307
0.1300000000005411
0.1325000000005514
0.1350000000005619
0.1375000000005723
0.1400000000005828
0.142500000000593
0.1450000000006035
0.1475000000006139
0.1500000000006244
0.1525000000006347
0.1550000000006451
0.1575000000006556
0.1600000000006659
0.1625000000006763
0.1650000000006867
0.1675000000006972
0.1700000000007076
0.172500000000718
0.1750000000007284
0.1775000000007387
0.1800000000007492
0.1825000000007595
0.18500000000077
0.1875000000007804
0.1900000000007909
0.1925000000008013
0.1950000000008116
0.197500000000822
0.2000000000008325
0.2025000000008429
0.2050000000008532
0.2075000000008637
0.210000000000874
0.2125000000008845
0.2150000000008948
0.2175000000009053
0.2200000000009157
0.2225000000009262
0.2250000000009365
0.2275000000009468
0.2300000000009573
0.2325000000009677
0.2350000000009781
0.2375000000009885
0.240000000000999
0.2425000000010094
0.2450000000010197
0.2475000000010301
0.2500000000010405
0.252500000001051
0.2550000000010614
0.2575000000010718
0.2600000000010821
0.2625000000010926
0.265000000001103
0.2675000000011134
0.2700000000011238
0.2725000000011342
0.2750000000011447
0.2775000000011549
0.2800000000011654
0.2825000000011758
0.2850000000011863
0.2875000000011966
0.2900000000012071
0.2925000000012175
0.2950000000012278
0.2975000000012382
0.3000000000012486
0.3025000000012591
0.3050000000012695
0.3075000000012799
0.3100000000012902
0.3125000000013007
0.3150000000013111
0.3175000000013215
0.3200000000013319
0.3225000000013423
0.3250000000013528
0.3275000000013631
0.3300000000013735
0.3325000000013839
0.3350000000013944
0.3375000000014048
0.3400000000014151
0.3425000000014256
0.3450000000014359
0.3475000000014464
0.3500000000014567
0.3525000000014672
0.3550000000014776
0.3575000000014881
0.3600000000014983
0.3625000000015087
0.3650000000015192
0.3675000000015296
0.37000000000154
0.3725000000015504
0.3750000000015609
0.3775000000015712
0.3800000000015817
0.382500000001592
0.3850000000016024
0.3875000000016129
0.3900000000016233
0.3925000000016337
0.395000000001644
0.3975000000016545
0.4000000000016649
0.4025000000016753
0.4050000000016857
0.4075000000016961
0.4100000000017066
0.4125000000017168
0.4150000000017273
0.4175000000017377
0.4200000000017482
0.4225000000017585
0.425000000001769
0.4275000000017793
0.4300000000017897
0.4325000000018001
0.4350000000018105
0.437500000001821
0.4400000000018314
0.4425000000018419
0.4450000000018521
0.4475000000018626
0.450000000001873
0.4525000000018834
0.4550000000018938
0.4575000000019042
0.4600000000019147
0.462500000001925
0.4650000000019354
0.4675000000019458
0.4700000000019563
0.4725000000019667
0.475000000001977
0.4775000000019874
0.4800000000019978
0.4825000000020083
0.4850000000020186
0.4875000000020291
0.4900000000020395
0.4925000000020491
0.4950000000020525
0.497500000002056
0.5000000000020595
0.502500000002049
0.5050000000020387
0.5075000000020282
0.5100000000020117
0.5125000000019944
0.515000000001977
0.5175000000019597
0.5200000000019424
0.5225000000019251
0.5250000000019077
0.5275000000018903
0.530000000001873
0.5325000000018556
0.5350000000018383
0.537500000001821
0.5400000000018037
0.5425000000017863
0.545000000001769
0.5475000000017516
0.5500000000017343
0.552500000001717
0.5550000000016996
0.5575000000016823
0.5600000000016649
0.5625000000016476
0.5650000000016302
0.5675000000016128
0.5700000000015956
0.5725000000015783
0.5750000000015609
0.5775000000015436
0.5800000000015262
0.5825000000015088
0.5850000000014914
0.5875000000014742
0.5900000000014568
0.5925000000014395
0.5950000000014222
0.5975000000014048
0.6000000000013874
0.60250000000137
0.6050000000013528
0.6075000000013354
0.6100000000013182
0.6125000000013008
0.6150000000012834
0.617500000001266
0.6200000000012488
0.6225000000012314
0.625000000001214
0.6275000000011968
0.6300000000011794
0.632500000001162
0.6350000000011446
0.6375000000011273
0.64000000000111
0.6425000000010928
0.6450000000010754
0.647500000001058
0.6500000000010406
0.6525000000010233
0.6550000000010059
0.6575000000009886
0.6600000000009714
0.662500000000954
0.6650000000009366
0.6675000000009192
0.6700000000009019
0.6725000000008845
0.6750000000008672
0.6775000000008499
0.6800000000008326
0.6825000000008152
0.6850000000007979
0.6875000000007805
0.6900000000007632
0.6925000000007457
0.6950000000007285
0.6975000000007112
0.7000000000006938
0.7025000000006765
0.7050000000006591
0.7075000000006417
0.7100000000006245
0.7125000000006072
0.7150000000005897
0.7175000000005725
0.7200000000005551
0.7225000000005377
0.7250000000005203
0.7275000000005031
0.7300000000004858
0.7325000000004684
0.7350000000004511
0.7375000000004337
0.7400000000004163
0.742500000000399
0.7450000000003817
0.7475000000003643
0.7500000000003471
0.7525000000003297
0.7550000000003123
0.7575000000002949
0.7600000000002776
0.7625000000002602
0.7650000000002429
0.7675000000002256
0.7700000000002082
0.7725000000001908
0.7750000000001736
0.7775000000001562
0.7800000000001388
0.7825000000001214
0.7850000000001041
0.7875000000000868
0.7900000000000694
0.792500000000052
0.7950000000000347
0.7975000000000174
0.8
0.8024999999999827
0.8049999999999653
0.8074999999999479
0.8099999999999306
0.8124999999999132
0.8149999999998959
0.8174999999998785
0.8199999999998612
0.8224999999998439
0.8249999999998265
0.8274999999998092
0.8299999999997918
0.8324999999997744
0.834999999999757
0.8374999999997397
0.8399999999997224
0.842499999999705
0.8449999999996878
0.8474999999996704
0.849999999999653
0.8524999999996357
0.8549999999996183
0.8574999999996009
0.8599999999995835
0.8624999999995663
0.8649999999995489
0.8674999999995324
0.869999999999522
0.8724999999995116
0.8749999999995012
0.8774999999995047
0.8799999999995082
0.8824999999995116
0.8849999999995212
0.8874999999995316
0.8899999999995419
0.8924999999995524
0.8949999999995628
0.8974999999995732
0.8999999999995836
0.902499999999594
0.9049999999996045
0.9074999999996148
0.9099999999996252
0.9124999999996357
0.9149999999996461
0.9174999999996565
0.9199999999996669
0.9224999999996774
0.9249999999996877
0.9274999999996981
0.9299999999997085
0.932499999999719
0.9349999999997294
0.9374999999997398
0.9399999999997501
0.9424999999997605
0.944999999999771
0.9474999999997814
0.9499999999997918
0.9524999999998023
0.9549999999998127
0.957499999999823
0.9599999999998334
0.9624999999998438
0.9649999999998543
0.9674999999998647
0.9699999999998751
0.9724999999998855
0.974999999999896
0.9774999999999063
0.9799999999999167
0.9824999999999271
0.9849999999999376
0.987499999999948
0.9899999999999584
0.9924999999999687
0.9949999999999792
0.9974999999999896
1.0
0.0
0.002499999999995252
0.004999999999990503
0.007499999999985755
0.009999999999981052
0.01249999999997635
0.01499999999997166
0.01749999999996696
0.01999999999996226
0.02249999999995756
0.02499999999995273
0.02749999999994782
0.02999999999994291
0.03249999999993778
0.03499999999993243
0.03749999999992708
0.03999999999992165
0.04249999999991609
0.04499999999991052
0.04749999999990496
0.04999999999989939
0.05249999999989383
0.05499999999988832
0.05749999999988319
0.05999999999987805
0.06249999999987293
0.06499999999986866
0.06749999999986439
0.06999999999986013
0.07249999999985625
0.07499999999985242
0.07749999999984859
0.07999999999984476
0.08249999999984094
0.08499999999983711
0.08749999999983327
0.08999999999982944
0.09249999999982561
0.0949999999998218
0.09749999999981797
0.09999999999981413
0.1024999999998103
0.1049999999998065
0.1074999999998026
0.1099999999997988
0.112499999999795
0.1149999999997912
0.1174999999997872
0.1199999999997825
0.1224999999997778
0.1249999999997731
0.1274999999997667
0.1299999999997603
0.1324999999997538
0.1349999999997466
0.1374999999997393
0.1399999999997321
0.1424999999997247
0.1449999999997175
0.1474999999997101
0.1499999999997028
0.1524999999996956
0.1549999999996882
0.157499999999681
0.1599999999996737
0.1624999999996664
0.1649999999996591
0.1674999999996518
0.1699999999996445
0.1724999999996372
0.1749999999996299
0.1774999999996226
0.1799999999996153
0.182499999999608
0.1849999999996007
0.1874999999995934
0.1899999999995861
0.1924999999995788
0.1949999999995715
0.1974999999995642
0.1999999999995569
0.2024999999995496
0.2049999999995423
0.207499999999535
0.2099999999995277
0.2124999999995204
0.2149999999995131
0.2174999999995058
0.2199999999994985
0.2224999999994912
0.2249999999994839
0.2274999999994766
0.2299999999994693
0.2324999999994621
0.2349999999994547
0.2374999999994475
0.2399999999994402
0.2424999999994328
0.2449999999994255
0.2474999999994182
0.2499999999994109
0.2524999999994036
0.2549999999993964
0.257499999999389
0.2599999999993817
0.2624999999993745
0.2649999999993672
0.2674999999993599
0.2699999999993525
0.2724999999993453
0.2749999999993379
0.2774999999993307
0.2799999999993234
0.282499999999316
0.2849999999993088
0.2874999999993015
0.2899999999992942
0.2924999999992869
0.2949999999992796
0.2974999999992723
0.299999999999265
0.3024999999992577
0.3049999999992504
0.307499999999243
0.3099999999992358
0.3124999999992285
0.3149999999992212
0.3174999999992139
0.3199999999992066
0.3224999999991993
0.324999999999192
0.3274999999991847
0.3299999999991775
0.3324999999991701
0.3349999999991628
0.3374999999991555
0.3399999999991483
0.3424999999991409
0.3449999999991336
0.3474999999991263
0.349999999999119
0.3524999999991117
0.3549999999991045
0.3574999999990972
0.3599999999990898
0.3624999999990826
0.3649999999990753
0.367499999999068
0.3699999999990606
0.3724999999990534
0.374999999999046
0.3774999999990388
0.3799999999990315
0.3824999999990242
0.3849999999990169
0.3874999999990096
0.3899999999990023
0.392499999998995
0.3949999999989877
0.3974999999989804
0.3999999999989731
0.4024999999989658
0.4049999999989585
0.4074999999989512
0.4099999999989439
0.4124999999989366
0.4149999999989293
0.417499999998922
0.4199999999989147
0.4224999999989074
0.4249999999989001
0.4274999999988928
0.4299999999988856
0.4324999999988782
0.4349999999988709
0.4374999999988636
0.4399999999988564
0.442499999998849
0.4449999999988417
0.4474999999988344
0.4499999999988272
0.4524999999988198
0.4549999999988126
0.4574999999988053
0.4599999999987979
0.4624999999987907
0.4649999999987834
0.4674999999987761
0.4699999999987687
0.4724999999987615
0.4749999999987542
0.4774999999987469
0.4799999999987396
0.4824999999987323
0.484999999998725
0.4874999999987177
0.4899999999987104
0.4924999999987035
0.4949999999986997
0.4974999999986959
0.4999999999986921
0.5024999999986952
0.5049999999986983
0.5074999999987013
0.5099999999987076
0.5124999999987142
0.5149999999987207
0.5174999999987274
0.5199999999987339
0.5224999999987405
0.5249999999987471
0.5274999999987537
0.5299999999987604
0.532499999998767
0.5349999999987735
0.5374999999987802
0.5399999999987867
0.5424999999987933
0.5449999999987999
0.5474999999988065
0.549999999998813
0.5524999999988197
0.5549999999988262
0.5574999999988328
0.5599999999988394
0.562499999998846
0.5649999999988526
0.5674999999988593
0.5699999999988659
0.5724999999988725
0.5749999999988791
0.5774999999988856
0.5799999999988923
0.5824999999988988
0.5849999999989054
0.587499999998912
0.5899999999989186
0.5924999999989251
0.5949999999989318
0.5974999999989383
0.5999999999989449
0.6024999999989515
0.6049999999989581
0.6074999999989646
0.6099999999989714
0.6124999999989779
0.6149999999989845
0.6174999999989911
0.6199999999989977
0.6224999999990043
0.6249999999990109
0.6274999999990175
0.6299999999990241
0.6324999999990307
0.6349999999990372
0.6374999999990439
0.6399999999990504
0.642499999999057
0.6449999999990637
0.6474999999990703
0.6499999999990768
0.6524999999990835
0.65499999999909
0.6574999999990966
0.6599999999991032
0.6624999999991098
0.6649999999991164
0.667499999999123
0.6699999999991295
0.6724999999991362
0.6749999999991427
0.6774999999991493
0.679999999999156
0.6824999999991626
0.684999999999169
0.6874999999991758
0.6899999999991824
0.6924999999991889
0.6949999999991956
0.6974999999992021
0.6999999999992087
0.7024999999992153
0.7049999999992219
0.7074999999992284
0.7099999999992351
0.7124999999992416
0.7149999999992483
0.7174999999992548
0.7199999999992615
0.7224999999992681
0.7249999999992747
0.7274999999992812
0.7299999999992879
0.7324999999992944
0.734999999999301
0.7374999999993076
0.7399999999993142
0.7424999999993207
0.7449999999993274
0.7474999999993339
0.7499999999993405
0.7524999999993472
0.7549999999993537
0.7574999999993605
0.759999999999367
0.7624999999993736
0.7649999999993802
0.7674999999993868
0.7699999999993933
0.7724999999994
0.7749999999994065
0.7774999999994131
0.7799999999994197
0.7824999999994263
0.7849999999994328
0.7874999999994395
0.789999999999446
0.7924999999994526
0.7949999999994593
0.7974999999994659
0.7999999999994724
0.8024999999994791
0.8049999999994856
0.8074999999994923
0.8099999999994988
0.8124999999995054
0.8149999999995121
0.8174999999995186
0.8199999999995252
0.8224999999995318
0.8249999999995384
0.8274999999995449
0.8299999999995517
0.8324999999995581
0.8349999999995648
0.8374999999995714
0.839999999999578
0.8424999999995845
0.8449999999995912
0.8474999999995977
0.8499999999996044
0.8524999999996109
0.8549999999996175
0.8574999999996241
0.8599999999996307
0.8624999999996372
0.8649999999996439
0.8674999999996504
0.869999999999657
0.8724999999996637
0.8749999999996703
0.8774999999996769
0.8799999999996835
0.8824999999996901
0.8849999999996966
0.8874999999997033
0.8899999999997098
0.8924999999997165
0.894999999999723
0.8974999999997296
0.8999999999997362
0.9024999999997428
0.9049999999997493
0.9074999999997561
0.9099999999997626
0.9124999999997692
0.9149999999997758
0.9174999999997824
0.9199999999997889
0.9224999999997956
0.9249999999998021
0.9274999999998087
0.9299999999998153
0.9324999999998219
0.9349999999998284
0.9374999999998351
0.9399999999998417
0.9424999999998483
0.944999999999855
0.9474999999998615
0.9499999999998682
0.9524999999998747
0.9549999999998813
0.9574999999998879
0.9599999999998945
0.962499999999901
0.9649999999999077
0.9674999999999142
0.9699999999999208
0.9724999999999274
0.974999999999934
0.9774999999999405
0.9799999999999472
0.9824999999999537
0.9849999999999605
0.987499999999967
0.9899999999999736
0.9924999999999802
0.9949999999999868
0.9974999999999933
1.0
0.0
0.002500000000010383
0.005000000000020877
0.007500000000031148
0.01000000000004164
0.01250000000005203
0.01500000000006252
0.01750000000007279
0.02000000000008317
0.02250000000009367
0.02500000000010405
0.02750000000011443
0.03000000000012482
0.03250000000013531
0.03500000000014569
0.03750000000015608
0.04000000000016646
0.04250000000017684
0.04500000000018733
0.04750000000019761
0.0500000000002081
0.05250000000021848
0.05500000000022898
0.05750000000023925
0.06000000000024974
0.06250000000026013
0.06500000000027051
0.067500000000281
0.07000000000029127
0.07250000000030177
0.07500000000031215
0.07750000000032264
0.08000000000033292
0.08250000000034341
0.08500000000035379
0.08750000000036418
0.09000000000037456
0.09250000000038494
0.09500000000039543
0.09750000000040582
0.1000000000004162
0.1025000000004266
0.1050000000004371
0.1075000000004475
0.1100000000004577
0.1125000000004682
0.1150000000004786
0.1175000000004891
0.1200000000004994
0.1225000000005099
0.1250000000005203
0.1275000000005307
0.1300000000005411
0.1325000000005514
0.1350000000005619
0.1375000000005723
0.1400000000005828
0.142500000000593
0.1450000000006035
0.1475000000006139
0.1500000000006244
0.1525000000006347
0.1550000000006451
0.1575000000006556
0.1600000000006659
0.1625000000006763
0.1650000000006867
0.1675000000006972
0.1700000000007076
0.172500000000718
0.1750000000007284
0.1775000000007387
0.1800000000007492
0.1825000000007595
0.18500000000077
0.1875000000007804
0.1900000000007909
0.1925000000008013
0.1950000000008116
0.197500000000822
0.2000000000008325
0.2025000000008429
0.2050000000008532
0.2075000000008637
0.210000000000874
0.2125000000008845
0.2150000000008948
0.2175000000009053
0.2200000000009157
0.2225000000009262
0.2250000000009365
0.2275000000009468
0.2300000000009573
0.2325000000009677
0.2350000000009781
0.2375000000009885
0.240000000000999
0.2425000000010094
0.2450000000010197
0.2475000000010301
0.2500000000010405
0.252500000001051
0.2550000000010614
0.2575000000010718
0.2600000000010821
0.2625000000010926
0.265000000001103
0.2675000000011134
0.2700000000011238
0.2725000000011342
0.2750000000011447
0.2775000000011549
0.2800000000011654
0.2825000000011758
0.2850000000011863
0.2875000000011966
0.2900000000012071
0.2925000000012175
0.2950000000012278
0.2975000000012382
0.3000000000012486
0.3025000000012591
0.3050000000012695
0.3075000000012799
0.3100000000012902
0.3125000000013007
0.3150000000013111
0.3175000000013215
0.3200000000013319
0.3225000000013423
0.3250000000013528
0.3275000000013631
0.3300000000013735
0.3325000000013839
0.3350000000013944
0.3375000000014048
0.3400000000014151
0.3425000000014256
0.3450000000014359
0.3475000000014464
0.3500000000014567
0.3525000000014672
0.3550000000014776
0.3575000000014881
0.3600000000014983
0.3625000000015087
0.3650000000015192
0.3675000000015296
0.37000000000154
0.3725000000015504
0.3750000000015609
0.3775000000015712
0.3800000000015817
0.382500000001592
0.3850000000016024
0.3875000000016129
0.3900000000016233
0.3925000000016337
0.395000000001644
0.3975000000016545
0.4000000000016649
0.4025000000016753
0.4050000000016857
0.4075000000016961
0.4100000000017066
0.4125000000017168
0.4150000000017273
0.4175000000017377
0.4200000000017482
0.4225000000017585
0.425000000001769
0.4275000000017793
0.4300000000017897
0.4325000000018001
0.4350000000018105
0.437500000001821
0.4400000000018314
0.4425000000018419
0.4450000000018521
0.4475000000018626
0.450000000001873
0.4525000000018834
0.4550000000018938
0.4575000000019042
0.4600000000019147
0.462500000001925
0.4650000000019354
0.4675000000019458
0.4700000000019563
0.4725000000019667
0.475000000001977
0.4775000000019874
0.4800000000019978
0.4825000000020083
0.4850000000020186
0.4875000000020291
0.4900000000020395
0.4925000000020491
0.4950000000020525
0.497500000002056
0.5000000000020595
0.502500000002049
0.5050000000020387
0.5075000000020282
0.5100000000020117
0.5125000000019944
0.515000000001977
0.5175000000019597
0.5200000000019424
0.5225000000019251
0.5250000000019077
0.5275000000018903
0.530000000001873
0.5325000000018556
0.5350000000018383
0.537500000001821
0.5400000000018037
0.5425000000017863
0.545000000001769
0.5475000000017516
0.5500000000017343
0.552500000001717
0.5550000000016996
0.5575000000016823
0.5600000000016649
0.5625000000016476
0.5650000000016302
0.5675000000016128
0.5700000000015956
0.5725000000015783
0.5750000000015609
0.5775000000015436
0.5800000000015262
0.5825000000015088
0.5850000000014914
0.5875000000014742
0.5900000000014568
0.5925000000014395
0.5950000000014222
0.5975000000014048
0.6000000000013874
0.60250000000137
0.6050000000013528
0.6075000000013354
0.6100000000013182
0.6125000000013008
0.6150000000012834
0.617500000001266
0.6200000000012488
0.6225000000012314
0.625000000001214
0.6275000000011968
0.6300000000011794
0.632500000001162
0.6350000000011446
0.6375000000011273
0.64000000000111
0.6425000000010928
0.6450000000010754
0.647500000001058
0.6500000000010406
0.6525000000010233
0.6550000000010059
0.6575000000009886
0.6600000000009714
0.662500000000954
0.6650000000009366
0.6675000000009192
0.6700000000009019
0.6725000000008845
0.6750000000008672
0.6775000000008499
0.6800000000008326
0.6825000000008152
0.6850000000007979
0.6875000000007805
0.6900000000007632
0.6925000000007457
0.6950000000007285
0.6975000000007112
0.7000000000006938
0.7025000000006765
0.7050000000006591
0.7075000000006417
0.7100000000006245
0.7125000000006072
0.7150000000005897
0.7175000000005725
0.7200000000005551
0.7225000000005377
0.7250000000005203
0.7275000000005031
0.7300000000004858
0.7325000000004684
0.7350000000004511
0.7375000000004337
0.7400000000004163
0.742500000000399
0.7450000000003817
0.7475000000003643
0.7500000000003471
0.7525000000003297
0.7550000000003123
0.7575000000002949
0.7600000000002776
0.7625000000002602
0.7650000000002429
0.7675000000002256
0.7700000000002082
0.7725000000001908
0.7750000000001736
0.7775000000001562
0.7800000000001388
0.7825000000001214
0.7850000000001041
0.7875000000000868
0.7900000000000694
0.792500000000052
0.7950000000000347
0.7975000000000174
0.8
0.8024999999999827
0.8049999999999653
0.8074999999999479
0.8099999999999306
0.8124999999999132
0.8149999999998959
0.8174999999998785
0.8199999999998612
0.8224999999998439
0.8249999999998265
0.8274999999998092
0.8299999999997918
0.8324999999997744
0.834999999999757
0.8374999999997397
0.8399999999997224
0.842499999999705
0.8449999999996878
0.8474999999996704
0.849999999999653
0.8524999999996357
0.8549999999996183
0.8574999999996009
0.8599999999995835
0.8624999999995663
0.8649999999995489
0.8674999999995324
0.869999999999522
0.8724999999995116
0.8749999999995012
0.8774999999995047
0.8799999999995082
0.8824999999995116
0.8849999999995212
0.8874999999995316
0.8899999999995419
0.8924999999995524
0.8949999999995628
0.8974999999995732
0.8999999999995836
0.902499999999594
0.9049999999996045
0.9074999999996148
0.9099999999996252
0.9124999999996357
0.9149999999996461
0.9174999999996565
0.9199999999996669
0.9224999999996774
0.9249999999996877
0.9274999999996981
0.9299999999997085
0.932499999999719
0.9349999999997294
0.9374999999997398