 VARIABLES ="x" "y" "z"  "rho1" "u" "v" "w" "p"
 ZONE  T = B1-IG, I=401, J=2, K=2, DATAPACKING=BLOCK, VARLOCATION=([1-3]=NODAL,[4-8]=CELLCENTERED), SOLUTIONTIME=0.695305971562031E-309
 0.000000000000000E+000
 0.249999999999525E-002
 0.499999999999050E-002
 0.749999999998576E-002
 0.999999999998105E-002
 0.124999999999763E-001
 0.149999999999717E-001
 0.174999999999670E-001
 0.199999999999623E-001
 0.224999999999576E-001
 0.249999999999527E-001
 0.274999999999478E-001
 0.299999999999429E-001
 0.324999999999378E-001
 0.349999999999324E-001
 0.374999999999271E-001
 0.399999999999216E-001
 0.424999999999161E-001
 0.449999999999105E-001
 0.474999999999050E-001
 0.499999999998994E-001
 0.524999999998938E-001
 0.549999999998883E-001
 0.574999999998832E-001
 0.599999999998780E-001
 0.624999999998729E-001
 0.649999999998687E-001
 0.674999999998644E-001
 0.699999999998601E-001
 0.724999999998562E-001
 0.749999999998524E-001
 0.774999999998486E-001
 0.799999999998448E-001
 0.824999999998409E-001
 0.849999999998371E-001
 0.874999999998333E-001
 0.899999999998294E-001
 0.924999999998256E-001
 0.949999999998218E-001
 0.974999999998180E-001
 0.999999999998141E-001
 0.102499999999810E+000
 0.104999999999806E+000
 0.107499999999803E+000
 0.109999999999799E+000
 0.112499999999795E+000
 0.114999999999791E+000
 0.117499999999787E+000
 0.119999999999783E+000
 0.122499999999778E+000
 0.124999999999773E+000
 0.127499999999767E+000
 0.129999999999760E+000
 0.132499999999754E+000
 0.134999999999747E+000
 0.137499999999739E+000
 0.139999999999732E+000
 0.142499999999725E+000
 0.144999999999717E+000
 0.147499999999710E+000
 0.149999999999703E+000
 0.152499999999696E+000
 0.154999999999688E+000
 0.157499999999681E+000
 0.159999999999674E+000
 0.162499999999666E+000
 0.164999999999659E+000
 0.167499999999652E+000
 0.169999999999644E+000
 0.172499999999637E+000
 0.174999999999630E+000
 0.177499999999623E+000
 0.179999999999615E+000
 0.182499999999608E+000
 0.184999999999601E+000
 0.187499999999593E+000
 0.189999999999586E+000
 0.192499999999579E+000
 0.194999999999571E+000
 0.197499999999564E+000
 0.199999999999557E+000
 0.202499999999550E+000
 0.204999999999542E+000
 0.207499999999535E+000
 0.209999999999528E+000
 0.212499999999520E+000
 0.214999999999513E+000
 0.217499999999506E+000
 0.219999999999499E+000
 0.222499999999491E+000
 0.224999999999484E+000
 0.227499999999477E+000
 0.229999999999469E+000
 0.232499999999462E+000
 0.234999999999455E+000
 0.237499999999447E+000
 0.239999999999440E+000
 0.242499999999433E+000
 0.244999999999426E+000
 0.247499999999418E+000
 0.249999999999411E+000
 0.252499999999404E+000
 0.254999999999396E+000
 0.257499999999389E+000
 0.259999999999382E+000
 0.262499999999375E+000
 0.264999999999367E+000
 0.267499999999360E+000
 0.269999999999352E+000
 0.272499999999345E+000
 0.274999999999338E+000
 0.277499999999331E+000
 0.279999999999323E+000
 0.282499999999316E+000
 0.284999999999309E+000
 0.287499999999301E+000
 0.289999999999294E+000
 0.292499999999287E+000
 0.294999999999280E+000
 0.297499999999272E+000
 0.299999999999265E+000
 0.302499999999258E+000
 0.304999999999250E+000
 0.307499999999243E+000
 0.309999999999236E+000
 0.312499999999229E+000
 0.314999999999221E+000
 0.317499999999214E+000
 0.319999999999207E+000
 0.322499999999199E+000
 0.324999999999192E+000
 0.327499999999185E+000
 0.329999999999178E+000
 0.332499999999170E+000
 0.334999999999163E+000
 0.337499999999155E+000
 0.339999999999148E+000
 0.342499999999141E+000
 0.344999999999134E+000
 0.347499999999126E+000
 0.349999999999119E+000
 0.352499999999112E+000
 0.354999999999104E+000
 0.357499999999097E+000
 0.359999999999090E+000
 0.362499999999083E+000
 0.364999999999075E+000
 0.367499999999068E+000
 0.369999999999061E+000
 0.372499999999053E+000
 0.374999999999046E+000
 0.377499999999039E+000
 0.379999999999032E+000
 0.382499999999024E+000
 0.384999999999017E+000
 0.387499999999010E+000
 0.389999999999002E+000
 0.392499999998995E+000
 0.394999999998988E+000
 0.397499999998980E+000
 0.399999999998973E+000
 0.402499999998966E+000
 0.404999999998959E+000
 0.407499999998951E+000
 0.409999999998944E+000
 0.412499999998937E+000
 0.414999999998929E+000
 0.417499999998922E+000
 0.419999999998915E+000
 0.422499999998907E+000
 0.424999999998900E+000
 0.427499999998893E+000
 0.429999999998886E+000
 0.432499999998878E+000
 0.434999999998871E+000
 0.437499999998864E+000
 0.439999999998856E+000
 0.442499999998849E+000
 0.444999999998842E+000
 0.447499999998834E+000
 0.449999999998827E+000
 0.452499999998820E+000
 0.454999999998813E+000
 0.457499999998805E+000
 0.459999999998798E+000
 0.462499999998791E+000
 0.464999999998783E+000
 0.467499999998776E+000
 0.469999999998769E+000
 0.472499999998762E+000
 0.474999999998754E+000
 0.477499999998747E+000
 0.479999999998740E+000
 0.482499999998732E+000
 0.484999999998725E+000
 0.487499999998718E+000
 0.489999999998710E+000
 0.492499999998703E+000
 0.494999999998700E+000
 0.497499999998696E+000
 0.499999999998692E+000
 0.502499999998695E+000
 0.504999999998698E+000
 0.507499999998701E+000
 0.509999999998708E+000
 0.512499999998714E+000
 0.514999999998721E+000
 0.517499999998727E+000
 0.519999999998734E+000
 0.522499999998741E+000
 0.524999999998747E+000
 0.527499999998754E+000
 0.529999999998760E+000
 0.532499999998767E+000
 0.534999999998773E+000
 0.537499999998780E+000
 0.539999999998787E+000
 0.542499999998793E+000
 0.544999999998800E+000
 0.547499999998806E+000
 0.549999999998813E+000
 0.552499999998820E+000
 0.554999999998826E+000
 0.557499999998833E+000
 0.559999999998839E+000
 0.562499999998846E+000
 0.564999999998853E+000
 0.567499999998859E+000
 0.569999999998866E+000
 0.572499999998872E+000
 0.574999999998879E+000
 0.577499999998886E+000
 0.579999999998892E+000
 0.582499999998899E+000
 0.584999999998905E+000
 0.587499999998912E+000
 0.589999999998919E+000
 0.592499999998925E+000
 0.594999999998932E+000
 0.597499999998938E+000
 0.599999999998945E+000
 0.602499999998952E+000
 0.604999999998958E+000
 0.607499999998965E+000
 0.609999999998971E+000
 0.612499999998978E+000
 0.614999999998984E+000
 0.617499999998991E+000
 0.619999999998998E+000
 0.622499999999004E+000
 0.624999999999011E+000
 0.627499999999018E+000
 0.629999999999024E+000
 0.632499999999031E+000
 0.634999999999037E+000
 0.637499999999044E+000
 0.639999999999050E+000
 0.642499999999057E+000
 0.644999999999064E+000
 0.647499999999070E+000
 0.649999999999077E+000
 0.652499999999083E+000
 0.654999999999090E+000
 0.657499999999097E+000
 0.659999999999103E+000
 0.662499999999110E+000
 0.664999999999116E+000
 0.667499999999123E+000
 0.669999999999130E+000
 0.672499999999136E+000
 0.674999999999143E+000
 0.677499999999149E+000
 0.679999999999156E+000
 0.682499999999163E+000
 0.684999999999169E+000
 0.687499999999176E+000
 0.689999999999182E+000
 0.692499999999189E+000
 0.694999999999196E+000
 0.697499999999202E+000
 0.699999999999209E+000
 0.702499999999215E+000
 0.704999999999222E+000
 0.707499999999228E+000
 0.709999999999235E+000
 0.712499999999242E+000
 0.714999999999248E+000
 0.717499999999255E+000
 0.719999999999261E+000
 0.722499999999268E+000
 0.724999999999275E+000
 0.727499999999281E+000
 0.729999999999288E+000
 0.732499999999294E+000
 0.734999999999301E+000
 0.737499999999308E+000
 0.739999999999314E+000
 0.742499999999321E+000
 0.744999999999327E+000
 0.747499999999334E+000
 0.749999999999341E+000
 0.752499999999347E+000
 0.754999999999354E+000
 0.757499999999360E+000
 0.759999999999367E+000
 0.762499999999374E+000
 0.764999999999380E+000
 0.767499999999387E+000
 0.769999999999393E+000
 0.772499999999400E+000
 0.774999999999406E+000
 0.777499999999413E+000
 0.779999999999420E+000
 0.782499999999426E+000
 0.784999999999433E+000
 0.787499999999440E+000
 0.789999999999446E+000
 0.792499999999453E+000
 0.794999999999459E+000
 0.797499999999466E+000
 0.799999999999472E+000
 0.802499999999479E+000
 0.804999999999486E+000
 0.807499999999492E+000
 0.809999999999499E+000
 0.812499999999505E+000
 0.814999999999512E+000
 0.817499999999519E+000
 0.819999999999525E+000
 0.822499999999532E+000
 0.824999999999538E+000
 0.827499999999545E+000
 0.829999999999552E+000
 0.832499999999558E+000
 0.834999999999565E+000
 0.837499999999571E+000
 0.839999999999578E+000
 0.842499999999584E+000
 0.844999999999591E+000
 0.847499999999598E+000
 0.849999999999604E+000
 0.852499999999611E+000
 0.854999999999618E+000
 0.857499999999624E+000
 0.859999999999631E+000
 0.862499999999637E+000
 0.864999999999644E+000
 0.867499999999650E+000
 0.869999999999657E+000
 0.872499999999664E+000
 0.874999999999670E+000
 0.877499999999677E+000
 0.879999999999683E+000
 0.882499999999690E+000
 0.884999999999697E+000
 0.887499999999703E+000
 0.889999999999710E+000
 0.892499999999717E+000
 0.894999999999723E+000
 0.897499999999730E+000
 0.899999999999736E+000
 0.902499999999743E+000
 0.904999999999749E+000
 0.907499999999756E+000
 0.909999999999763E+000
 0.912499999999769E+000
 0.914999999999776E+000
 0.917499999999782E+000
 0.919999999999789E+000
 0.922499999999796E+000
 0.924999999999802E+000
 0.927499999999809E+000
 0.929999999999815E+000
 0.932499999999822E+000
 0.934999999999828E+000
 0.937499999999835E+000
 0.939999999999842E+000
 0.942499999999848E+000
 0.944999999999855E+000
 0.947499999999861E+000
 0.949999999999868E+000
 0.952499999999875E+000
 0.954999999999881E+000
 0.957499999999888E+000
 0.959999999999894E+000
 0.962499999999901E+000
 0.964999999999908E+000
 0.967499999999914E+000
 0.969999999999921E+000
 0.972499999999927E+000
 0.974999999999934E+000
 0.977499999999941E+000
 0.979999999999947E+000
 0.982499999999954E+000
 0.984999999999960E+000
 0.987499999999967E+000
 0.989999999999974E+000
 0.992499999999980E+000
 0.994999999999987E+000
 0.997499999999993E+000
 0.100000000000000E+001
 0.000000000000000E+000
 0.250000000001038E-002
 0.500000000002088E-002
 0.750000000003115E-002
 0.100000000000416E-001
 0.125000000000520E-001
 0.150000000000625E-001
 0.175000000000728E-001
 0.200000000000832E-001
 0.225000000000937E-001
 0.250000000001041E-001
 0.275000000001144E-001
 0.300000000001248E-001
 0.325000000001353E-001
 0.350000000001457E-001
 0.375000000001561E-001
 0.400000000001665E-001
 0.425000000001768E-001
 0.450000000001873E-001
 0.475000000001976E-001
 0.500000000002081E-001
 0.525000000002185E-001
 0.550000000002290E-001
 0.575000000002392E-001
 0.600000000002497E-001
 0.625000000002601E-001
 0.650000000002705E-001
 0.675000000002810E-001
 0.700000000002913E-001
 0.725000000003018E-001
 0.750000000003122E-001
 0.775000000003226E-001
 0.800000000003329E-001
 0.825000000003434E-001
 0.850000000003538E-001
 0.875000000003642E-001
 0.900000000003746E-001
 0.925000000003849E-001
 0.950000000003954E-001
 0.975000000004058E-001
 0.100000000000416E+000
 0.102500000000427E+000
 0.105000000000437E+000
 0.107500000000448E+000
 0.110000000000458E+000
 0.112500000000468E+000
 0.115000000000479E+000
 0.117500000000489E+000
 0.120000000000499E+000
 0.122500000000510E+000
 0.125000000000520E+000
 0.127500000000531E+000
 0.130000000000541E+000
 0.132500000000551E+000
 0.135000000000562E+000
 0.137500000000572E+000
 0.140000000000583E+000
 0.142500000000593E+000
 0.145000000000604E+000
 0.147500000000614E+000
 0.150000000000624E+000
 0.152500000000635E+000
 0.155000000000645E+000
 0.157500000000656E+000
 0.160000000000666E+000
 0.162500000000676E+000
 0.165000000000687E+000
 0.167500000000697E+000
 0.170000000000708E+000
 0.172500000000718E+000
 0.175000000000728E+000
 0.177500000000739E+000
 0.180000000000749E+000
 0.182500000000759E+000
 0.185000000000770E+000
 0.187500000000780E+000
 0.190000000000791E+000
 0.192500000000801E+000
 0.195000000000812E+000
 0.197500000000822E+000
 0.200000000000833E+000
 0.202500000000843E+000
 0.205000000000853E+000
 0.207500000000864E+000
 0.210000000000874E+000
 0.212500000000885E+000
 0.215000000000895E+000
 0.217500000000905E+000
 0.220000000000916E+000
 0.222500000000926E+000
 0.225000000000937E+000
 0.227500000000947E+000
 0.230000000000957E+000
 0.232500000000968E+000
 0.235000000000978E+000
 0.237500000000989E+000
 0.240000000000999E+000
 0.242500000001009E+000
 0.245000000001020E+000
 0.247500000001030E+000
 0.250000000001041E+000
 0.252500000001051E+000
 0.255000000001061E+000
 0.257500000001072E+000
 0.260000000001082E+000
 0.262500000001093E+000
 0.265000000001103E+000
 0.267500000001113E+000
 0.270000000001124E+000
 0.272500000001134E+000
 0.275000000001145E+000
 0.277500000001155E+000
 0.280000000001165E+000
 0.282500000001176E+000
 0.285000000001186E+000
 0.287500000001197E+000
 0.290000000001207E+000
 0.292500000001218E+000
 0.295000000001228E+000
 0.297500000001238E+000
 0.300000000001249E+000
 0.302500000001259E+000
 0.305000000001269E+000
 0.307500000001280E+000
 0.310000000001290E+000
 0.312500000001301E+000
 0.315000000001311E+000
 0.317500000001322E+000
 0.320000000001332E+000
 0.322500000001342E+000
 0.325000000001353E+000
 0.327500000001363E+000
 0.330000000001373E+000
 0.332500000001384E+000
 0.335000000001394E+000
 0.337500000001405E+000
 0.340000000001415E+000
 0.342500000001426E+000
 0.345000000001436E+000
 0.347500000001446E+000
 0.350000000001457E+000
 0.352500000001467E+000
 0.355000000001478E+000
 0.357500000001488E+000
 0.360000000001498E+000
 0.362500000001509E+000
 0.365000000001519E+000
 0.367500000001530E+000
 0.370000000001540E+000
 0.372500000001550E+000
 0.375000000001561E+000
 0.377500000001571E+000
 0.380000000001582E+000
 0.382500000001592E+000
 0.385000000001602E+000
 0.387500000001613E+000
 0.390000000001623E+000
 0.392500000001634E+000
 0.395000000001644E+000
 0.397500000001654E+000
 0.400000000001665E+000
 0.402500000001675E+000
 0.405000000001686E+000
 0.407500000001696E+000
 0.410000000001707E+000
 0.412500000001717E+000
 0.415000000001727E+000
 0.417500000001738E+000
 0.420000000001748E+000
 0.422500000001759E+000
 0.425000000001769E+000
 0.427500000001779E+000
 0.430000000001790E+000
 0.432500000001800E+000
 0.435000000001810E+000
 0.437500000001821E+000
 0.440000000001831E+000
 0.442500000001842E+000
 0.445000000001852E+000
 0.447500000001863E+000
 0.450000000001873E+000
 0.452500000001883E+000
 0.455000000001894E+000
 0.457500000001904E+000
 0.460000000001915E+000
 0.462500000001925E+000
 0.465000000001935E+000
 0.467500000001946E+000
 0.470000000001956E+000
 0.472500000001967E+000
 0.475000000001977E+000
 0.477500000001987E+000
 0.480000000001998E+000
 0.482500000002008E+000
 0.485000000002019E+000
 0.487500000002029E+000
 0.490000000002040E+000
 0.492500000002049E+000
 0.495000000002053E+000
 0.497500000002056E+000
 0.500000000002059E+000
 0.502500000002049E+000
 0.505000000002039E+000
 0.507500000002028E+000
 0.510000000002012E+000
 0.512500000001994E+000
 0.515000000001977E+000
 0.517500000001960E+000
 0.520000000001942E+000
 0.522500000001925E+000
 0.525000000001908E+000
 0.527500000001890E+000
 0.530000000001873E+000
 0.532500000001856E+000
 0.535000000001838E+000
 0.537500000001821E+000
 0.540000000001804E+000
 0.542500000001786E+000
 0.545000000001769E+000
 0.547500000001752E+000
 0.550000000001734E+000
 0.552500000001717E+000
 0.555000000001700E+000
 0.557500000001682E+000
 0.560000000001665E+000
 0.562500000001648E+000
 0.565000000001630E+000
 0.567500000001613E+000
 0.570000000001596E+000
 0.572500000001578E+000
 0.575000000001561E+000
 0.577500000001544E+000
 0.580000000001526E+000
 0.582500000001509E+000
 0.585000000001491E+000
 0.587500000001474E+000
 0.590000000001457E+000
 0.592500000001440E+000
 0.595000000001422E+000
 0.597500000001405E+000
 0.600000000001387E+000
 0.602500000001370E+000
 0.605000000001353E+000
 0.607500000001335E+000
 0.610000000001318E+000
 0.612500000001301E+000
 0.615000000001283E+000
 0.617500000001266E+000
 0.620000000001249E+000
 0.622500000001231E+000
 0.625000000001214E+000
 0.627500000001197E+000
 0.630000000001179E+000
 0.632500000001162E+000
 0.635000000001145E+000
 0.637500000001127E+000
 0.640000000001110E+000
 0.642500000001093E+000
 0.645000000001075E+000
 0.647500000001058E+000
 0.650000000001041E+000
 0.652500000001023E+000
 0.655000000001006E+000
 0.657500000000989E+000
 0.660000000000971E+000
 0.662500000000954E+000
 0.665000000000937E+000
 0.667500000000919E+000
 0.670000000000902E+000
 0.672500000000885E+000
 0.675000000000867E+000
 0.677500000000850E+000
 0.680000000000833E+000
 0.682500000000815E+000
 0.685000000000798E+000
 0.687500000000780E+000
 0.690000000000763E+000
 0.692500000000746E+000
 0.695000000000728E+000
 0.697500000000711E+000
 0.700000000000694E+000
 0.702500000000676E+000
 0.705000000000659E+000
 0.707500000000642E+000
 0.710000000000624E+000
 0.712500000000607E+000
 0.715000000000590E+000
 0.717500000000572E+000
 0.720000000000555E+000
 0.722500000000538E+000
 0.725000000000520E+000
 0.727500000000503E+000
 0.730000000000486E+000
 0.732500000000468E+000
 0.735000000000451E+000
 0.737500000000434E+000
 0.740000000000416E+000
 0.742500000000399E+000
 0.745000000000382E+000
 0.747500000000364E+000
 0.750000000000347E+000
 0.752500000000330E+000
 0.755000000000312E+000
 0.757500000000295E+000
 0.760000000000278E+000
 0.762500000000260E+000
 0.765000000000243E+000
 0.767500000000226E+000
 0.770000000000208E+000
 0.772500000000191E+000
 0.775000000000174E+000
 0.777500000000156E+000
 0.780000000000139E+000
 0.782500000000121E+000
 0.785000000000104E+000
 0.787500000000087E+000
 0.790000000000069E+000
 0.792500000000052E+000
 0.795000000000035E+000
 0.797500000000017E+000
 0.800000000000000E+000
 0.802499999999983E+000
 0.804999999999965E+000
 0.807499999999948E+000
 0.809999999999931E+000
 0.812499999999913E+000
 0.814999999999896E+000
 0.817499999999879E+000
 0.819999999999861E+000
 0.822499999999844E+000
 0.824999999999827E+000
 0.827499999999809E+000
 0.829999999999792E+000
 0.832499999999774E+000
 0.834999999999757E+000
 0.837499999999740E+000
 0.839999999999722E+000
 0.842499999999705E+000
 0.844999999999688E+000
 0.847499999999670E+000
 0.849999999999653E+000
 0.852499999999636E+000
 0.854999999999618E+000
 0.857499999999601E+000
 0.859999999999584E+000
 0.862499999999566E+000
 0.864999999999549E+000
 0.867499999999532E+000
 0.869999999999522E+000
 0.872499999999512E+000
 0.874999999999501E+000
 0.877499999999505E+000
 0.879999999999508E+000
 0.882499999999512E+000
 0.884999999999521E+000
 0.887499999999532E+000
 0.889999999999542E+000
 0.892499999999552E+000
 0.894999999999563E+000
 0.897499999999573E+000
 0.899999999999584E+000
 0.902499999999594E+000
 0.904999999999604E+000
 0.907499999999615E+000
 0.909999999999625E+000
 0.912499999999636E+000
 0.914999999999646E+000
 0.917499999999656E+000
 0.919999999999667E+000
 0.922499999999677E+000
 0.924999999999688E+000
 0.927499999999698E+000
 0.929999999999709E+000
 0.932499999999719E+000
 0.934999999999729E+000
 0.937499999999740E+000
 0.939999999999750E+000
 0.942499999999761E+000
 0.944999999999771E+000
 0.947499999999781E+000
 0.949999999999792E+000
 0.952499999999802E+000
 0.954999999999813E+000
 0.957499999999823E+000
 0.959999999999833E+000
 0.962499999999844E+000
 0.964999999999854E+000
 0.967499999999865E+000
 0.969999999999875E+000
 0.972499999999885E+000
 0.974999999999896E+000
 0.977499999999906E+000
 0.979999999999917E+000
 0.982499999999927E+000
 0.984999999999938E+000
 0.987499999999948E+000
 0.989999999999958E+000
 0.992499999999969E+000
 0.994999999999979E+000
 0.997499999999990E+000
 0.100000000000000E+001
 0.000000000000000E+000
 0.249999999999525E-002
 0.499999999999050E-002
 0.749999999998576E-002
 0.999999999998105E-002
 0.124999999999763E-001
 0.149999999999717E-001
 0.174999999999670E-001
 0.199999999999623E-001
 0.224999999999576E-001
 0.249999999999527E-001
 0.274999999999478E-001
 0.299999999999429E-001
 0.324999999999378E-001
 0.349999999999324E-001
 0.374999999999271E-001
 0.399999999999216E-001
 0.424999999999161E-001
 0.449999999999105E-001
 0.474999999999050E-001
 0.499999999998994E-001
 0.524999999998938E-001
 0.549999999998883E-001
 0.574999999998832E-001
 0.599999999998780E-001
 0.624999999998729E-001
 0.649999999998687E-001
 0.674999999998644E-001
 0.699999999998601E-001
 0.724999999998562E-001
 0.749999999998524E-001
 0.774999999998486E-001
 0.799999999998448E-001
 0.824999999998409E-001
 0.849999999998371E-001
 0.874999999998333E-001
 0.899999999998294E-001
 0.924999999998256E-001
 0.949999999998218E-001
 0.974999999998180E-001
 0.999999999998141E-001
 0.102499999999810E+000
 0.104999999999806E+000
 0.107499999999803E+000
 0.109999999999799E+000
 0.112499999999795E+000
 0.114999999999791E+000
 0.117499999999787E+000
 0.119999999999783E+000
 0.122499999999778E+000
 0.124999999999773E+000
 0.127499999999767E+000
 0.129999999999760E+000
 0.132499999999754E+000
 0.134999999999747E+000
 0.137499999999739E+000
 0.139999999999732E+000
 0.142499999999725E+000
 0.144999999999717E+000
 0.147499999999710E+000
 0.149999999999703E+000
 0.152499999999696E+000
 0.154999999999688E+000
 0.157499999999681E+000
 0.159999999999674E+000
 0.162499999999666E+000
 0.164999999999659E+000
 0.167499999999652E+000
 0.169999999999644E+000
 0.172499999999637E+000
 0.174999999999630E+000
 0.177499999999623E+000
 0.179999999999615E+000
 0.182499999999608E+000
 0.184999999999601E+000
 0.187499999999593E+000
 0.189999999999586E+000
 0.192499999999579E+000
 0.194999999999571E+000
 0.197499999999564E+000
 0.199999999999557E+000
 0.202499999999550E+000
 0.204999999999542E+000
 0.207499999999535E+000
 0.209999999999528E+000
 0.212499999999520E+000
 0.214999999999513E+000
 0.217499999999506E+000
 0.219999999999499E+000
 0.222499999999491E+000
 0.224999999999484E+000
 0.227499999999477E+000
 0.229999999999469E+000
 0.232499999999462E+000
 0.234999999999455E+000
 0.237499999999447E+000
 0.239999999999440E+000
 0.242499999999433E+000
 0.244999999999426E+000
 0.247499999999418E+000
 0.249999999999411E+000
 0.252499999999404E+000
 0.254999999999396E+000
 0.257499999999389E+000
 0.259999999999382E+000
 0.262499999999375E+000
 0.264999999999367E+000
 0.267499999999360E+000
 0.269999999999352E+000
 0.272499999999345E+000
 0.274999999999338E+000
 0.277499999999331E+000
 0.279999999999323E+000
 0.282499999999316E+000
 0.284999999999309E+000
 0.287499999999301E+000
 0.289999999999294E+000
 0.292499999999287E+000
 0.294999999999280E+000
 0.297499999999272E+000
 0.299999999999265E+000
 0.302499999999258E+000
 0.304999999999250E+000
 0.307499999999243E+000
 0.309999999999236E+000
 0.312499999999229E+000
 0.314999999999221E+000
 0.317499999999214E+000
 0.319999999999207E+000
 0.322499999999199E+000
 0.324999999999192E+000
 0.327499999999185E+000
 0.329999999999178E+000
 0.332499999999170E+000
 0.334999999999163E+000
 0.337499999999155E+000
 0.339999999999148E+000
 0.342499999999141E+000
 0.344999999999134E+000
 0.347499999999126E+000
 0.349999999999119E+000
 0.352499999999112E+000
 0.354999999999104E+000
 0.357499999999097E+000
 0.359999999999090E+000
 0.362499999999083E+000
 0.364999999999075E+000
 0.367499999999068E+000
 0.369999999999061E+000
 0.372499999999053E+000
 0.374999999999046E+000
 0.377499999999039E+000
 0.379999999999032E+000
 0.382499999999024E+000
 0.384999999999017E+000
 0.387499999999010E+000
 0.389999999999002E+000
 0.392499999998995E+000
 0.394999999998988E+000
 0.397499999998980E+000
 0.399999999998973E+000
 0.402499999998966E+000
 0.404999999998959E+000
 0.407499999998951E+000
 0.409999999998944E+000
 0.412499999998937E+000
 0.414999999998929E+000
 0.417499999998922E+000
 0.419999999998915E+000
 0.422499999998907E+000
 0.424999999998900E+000
 0.427499999998893E+000
 0.429999999998886E+000
 0.432499999998878E+000
 0.434999999998871E+000
 0.437499999998864E+000
 0.439999999998856E+000
 0.442499999998849E+000
 0.444999999998842E+000
 0.447499999998834E+000
 0.449999999998827E+000
 0.452499999998820E+000
 0.454999999998813E+000
 0.457499999998805E+000
 0.459999999998798E+000
 0.462499999998791E+000
 0.464999999998783E+000
 0.467499999998776E+000
 0.469999999998769E+000
 0.472499999998762E+000
 0.474999999998754E+000
 0.477499999998747E+000
 0.479999999998740E+000
 0.482499999998732E+000
 0.484999999998725E+000
 0.487499999998718E+000
 0.489999999998710E+000
 0.492499999998703E+000
 0.494999999998700E+000
 0.497499999998696E+000
 0.499999999998692E+000
 0.502499999998695E+000
 0.504999999998698E+000
 0.507499999998701E+000
 0.509999999998708E+000
 0.512499999998714E+000
 0.514999999998721E+000
 0.517499999998727E+000
 0.519999999998734E+000
 0.522499999998741E+000
 0.524999999998747E+000
 0.527499999998754E+000
 0.529999999998760E+000
 0.532499999998767E+000
 0.534999999998773E+000
 0.537499999998780E+000
 0.539999999998787E+000
 0.542499999998793E+000
 0.544999999998800E+000
 0.547499999998806E+000
 0.549999999998813E+000
 0.552499999998820E+000
 0.554999999998826E+000
 0.557499999998833E+000
 0.559999999998839E+000
 0.562499999998846E+000
 0.564999999998853E+000
 0.567499999998859E+000
 0.569999999998866E+000
 0.572499999998872E+000
 0.574999999998879E+000
 0.577499999998886E+000
 0.579999999998892E+000
 0.582499999998899E+000
 0.584999999998905E+000
 0.587499999998912E+000
 0.589999999998919E+000
 0.592499999998925E+000
 0.594999999998932E+000
 0.597499999998938E+000
 0.599999999998945E+000
 0.602499999998952E+000
 0.604999999998958E+000
 0.607499999998965E+000
 0.609999999998971E+000
 0.612499999998978E+000
 0.614999999998984E+000
 0.617499999998991E+000
 0.619999999998998E+000
 0.622499999999004E+000
 0.624999999999011E+000
 0.627499999999018E+000
 0.629999999999024E+000
 0.632499999999031E+000
 0.634999999999037E+000
 0.637499999999044E+000
 0.639999999999050E+000
 0.642499999999057E+000
 0.644999999999064E+000
 0.647499999999070E+000
 0.649999999999077E+000
 0.652499999999083E+000
 0.654999999999090E+000
 0.657499999999097E+000
 0.659999999999103E+000
 0.662499999999110E+000
 0.664999999999116E+000
 0.667499999999123E+000
 0.669999999999130E+000
 0.672499999999136E+000
 0.674999999999143E+000
 0.677499999999149E+000
 0.679999999999156E+000
 0.682499999999163E+000
 0.684999999999169E+000
 0.687499999999176E+000
 0.689999999999182E+000
 0.692499999999189E+000
 0.694999999999196E+000
 0.697499999999202E+000
 0.699999999999209E+000
 0.702499999999215E+000
 0.704999999999222E+000
 0.707499999999228E+000
 0.709999999999235E+000
 0.712499999999242E+000
 0.714999999999248E+000
 0.717499999999255E+000
 0.719999999999261E+000
 0.722499999999268E+000
 0.724999999999275E+000
 0.727499999999281E+000
 0.729999999999288E+000
 0.732499999999294E+000
 0.734999999999301E+000
 0.737499999999308E+000
 0.739999999999314E+000
 0.742499999999321E+000
 0.744999999999327E+000
 0.747499999999334E+000
 0.749999999999341E+000
 0.752499999999347E+000
 0.754999999999354E+000
 0.757499999999360E+000
 0.759999999999367E+000
 0.762499999999374E+000
 0.764999999999380E+000
 0.767499999999387E+000
 0.769999999999393E+000
 0.772499999999400E+000
 0.774999999999406E+000
 0.777499999999413E+000
 0.779999999999420E+000
 0.782499999999426E+000
 0.784999999999433E+000
 0.787499999999440E+000
 0.789999999999446E+000
 0.792499999999453E+000
 0.794999999999459E+000
 0.797499999999466E+000
 0.799999999999472E+000
 0.802499999999479E+000
 0.804999999999486E+000
 0.807499999999492E+000
 0.809999999999499E+000
 0.812499999999505E+000
 0.814999999999512E+000
 0.817499999999519E+000
 0.819999999999525E+000
 0.822499999999532E+000
 0.824999999999538E+000
 0.827499999999545E+000
 0.829999999999552E+000
 0.832499999999558E+000
 0.834999999999565E+000
 0.837499999999571E+000
 0.839999999999578E+000
 0.842499999999584E+000
 0.844999999999591E+000
 0.847499999999598E+000
 0.849999999999604E+000
 0.852499999999611E+000
 0.854999999999618E+000
 0.857499999999624E+000
 0.859999999999631E+000
 0.862499999999637E+000
 0.864999999999644E+000
 0.867499999999650E+000
 0.869999999999657E+000
 0.872499999999664E+000
 0.874999999999670E+000
 0.877499999999677E+000
 0.879999999999683E+000
 0.882499999999690E+000
 0.884999999999697E+000
 0.887499999999703E+000
 0.889999999999710E+000
 0.892499999999717E+000
 0.894999999999723E+000
 0.897499999999730E+000
 0.899999999999736E+000
 0.902499999999743E+000
 0.904999999999749E+000
 0.907499999999756E+000
 0.909999999999763E+000
 0.912499999999769E+000
 0.914999999999776E+000
 0.917499999999782E+000
 0.919999999999789E+000
 0.922499999999796E+000
 0.924999999999802E+000
 0.927499999999809E+000
 0.929999999999815E+000
 0.932499999999822E+000
 0.934999999999828E+000
 0.937499999999835E+000
 0.939999999999842E+000
 0.942499999999848E+000
 0.944999999999855E+000
 0.947499999999861E+000
 0.949999999999868E+000
 0.952499999999875E+000
 0.954999999999881E+000
 0.957499999999888E+000
 0.959999999999894E+000
 0.962499999999901E+000
 0.964999999999908E+000
 0.967499999999914E+000
 0.969999999999921E+000
 0.972499999999927E+000
 0.974999999999934E+000
 0.977499999999941E+000
 0.979999999999947E+000
 0.982499999999954E+000
 0.984999999999960E+000
 0.987499999999967E+000
 0.989999999999974E+000
 0.992499999999980E+000
 0.994999999999987E+000
 0.997499999999993E+000
 0.100000000000000E+001
 0.000000000000000E+000
 0.250000000001038E-002
 0.500000000002088E-002
 0.750000000003115E-002
 0.100000000000416E-001
 0.125000000000520E-001
 0.150000000000625E-001
 0.175000000000728E-001
 0.200000000000832E-001
 0.225000000000937E-001
 0.250000000001041E-001
 0.275000000001144E-001
 0.300000000001248E-001
 0.325000000001353E-001
 0.350000000001457E-001
 0.375000000001561E-001
 0.400000000001665E-001
 0.425000000001768E-001
 0.450000000001873E-001
 0.475000000001976E-001
 0.500000000002081E-001
 0.525000000002185E-001
 0.550000000002290E-001
 0.575000000002392E-001
 0.600000000002497E-001
 0.625000000002601E-001
 0.650000000002705E-001
 0.675000000002810E-001
 0.700000000002913E-001
 0.725000000003018E-001
 0.750000000003122E-001
 0.775000000003226E-001
 0.800000000003329E-001
 0.825000000003434E-001
 0.850000000003538E-001
 0.875000000003642E-001
 0.900000000003746E-001
 0.925000000003849E-001
 0.950000000003954E-001