 TITLE     = "GRIB mesh" 
 VARIABLES = "X", "Y", "Z" 
 ZONE T="BLOCCO 1" 
 I= 51, J= 51, K=  2, ZONETYPE=Ordered 
 DATAPACKING=BLOCK 
-5.50064327e-10
0.026592014284644083
0.05319274380123473
0.07981110687457005
0.10645642716778381
0.13313864210949033
0.15986851694573512
0.18665786485928793
0.2135197739975091
0.24046884014339143
0.2675214027480442
0.2946957803569874
0.3220124997522499
0.3494945113253817
0.37716738156838586
0.4050594523453972
0.43320195610505013
0.4616290767480695
0.4903779475519014
0.5194885807785099
0.549003727817897
0.578968674069583
0.609430977271766
0.6404401628969416
0.6720473965680933
0.7043051488596593
0.7372668732036032
0.7709867128652486
0.8055192496008523
0.8409193024028627
0.8772417802928775
0.914541589165917
0.9528735894248354
0.9922925991662181
1.0328534386929444
1.0746110021690036
1.1176203573909942
1.161936868564093
1.2076163288877906
1.2547151053091183
1.3032902910349553
1.353399863709577
1.4051028482170766
1.4584594840467884
1.513531397794623
1.570381782016954
1.629075582461797
1.689679696272237
1.7522631844075498
1.8168975024847545
1.8836634938475447
5.1534277e-11
0.026589443625707643
0.053187543473549814
0.07980315698420615
0.10644554625625074
0.13312458565405313
0.15985097523439312
0.18663646100482423
0.21349406219465772
0.24043830462180507
0.267485457870606
0.2946537724115494
0.3219637109730483
0.34943816659323346
0.3771026582223147
0.40498549323235644
0.43311788573801613
0.46153402002687416
0.4902710501557143
0.5193690299180095
0.5488707718143562
0.5788216391740633
0.609269281311917
0.6402633202421608
0.6718550205629561
0.7040969499480477
0.737042649063623
0.770746335846218
0.8052626516311074
0.8406464591383349
0.8769526946948782
0.9142362764848648
0.9525520638593367
0.9919548624549976
1.0324994689320803
1.0742407474525861
1.1172337315227026
1.1615337453286716
1.2071965386787065
1.2542784340735844
1.3028364767308882
1.3529285971974412
1.4046137707844375
1.4579521847981831
1.5130054143802742
1.5698365961492624
1.628510617602967
1.689094313076546
1.7516566753248148
1.8162690825567835
1.8830116778885946
-1.3205159e-11
0.02658197550251873
0.053172433563269395
0.07978005604962862
0.10641392586440007
0.1330837331426918
0.1597999877919663
0.1865742395877766
0.21341930622893984
0.2403495086668594
0.2673809116363607
0.29453156566333616
0.3218217449381249
0.349274173368985
0.37691422928832136
0.40477011761456183
0.43287299743779195
0.46125705321302435
0.48995949939967876
0.5190205116486305
0.5484830824277389
0.5783928048704665
0.6087975945688422
0.6397473637429392
0.6712936723574163
0.7034893699751936
0.7363882538140212
0.7700447611402358
0.8045137081014828
0.8398500844209007
0.8761089059169356
0.9133451256721733
0.9516135982230249
0.9909690907127566
1.0314663334095844
1.0731601023745871
1.1161053263837215
1.160357212541454
1.2059713851703222
1.2530040336076467
1.301512067830711
1.3515532766594909
1.40318649100442
1.456471750919587
1.5114704758336273
1.5682456425197842
1.626861968213201
1.6873861024937011
1.7498868450727454
1.814435356442002
1.8811102600657665
-2.0056123e-11
0.02657001591677216
0.05314823498894877
0.07974305650831309
0.10636327474471724
0.13301828275642313
0.1597182833717962
0.18647450888431755
0.21329945023391383
0.2402070953724733
0.267213175113975
0.29433541301216204
0.3215937737979032
0.34901070254673927
0.37661134449415273
0.404423733331033
0.4324789344522777
0.46081112944520247
0.48945762956366606
0.5184588093491311
0.5478579569153343
0.5777010442244948
0.6080364279401974
0.6389144986100064
0.6703873025942099
0.7025081541913243
0.7353312720905241
0.768911452387866
0.8033037957209088
0.838563496681753
0.8747456977240946
0.9119054052912695
0.9500974625793067
0.9893765706162274
1.0297973489829797
1.0714144281720919
1.1142825650769947
1.1584567756529212
1.2039924794581038
1.2509456516540804
1.2993729801156397
1.3493320265657314
1.4008813892517913
1.4540808686086342
1.508991637283267
1.5656764108026553
1.6241996372131515
1.6846276742645403
1.7470289999065842
1.8114744280938415
1.8780378115147836
-2.6745606e-11
0.026554016983800888
0.05311586085212966
0.07969355014303642
0.1062954897738227
0.13293067139689263
0.15960888202350532
0.1863409229031501
0.2131388399432688
0.2400161659174233
0.26698817330293
0.2940721347476376
0.32128758592161766
0.348656582838082
0.3762039428875786
0.40395745609697137
0.43194805101221195
0.46020989875885115
0.4887804399306399
0.5177003225199106
0.5470132452594059
0.5767657090051472
0.6070066880186566
0.637787241863312
0.6691600952434213
0.7011792113865276
0.733899393871251
0.7673759337417998
0.8016643207787797
0.8368200266938898
0.872898361310559
0.9099543972051279
0.9480429548429322
0.9872186380119267
1.0275359091543312
1.0690491951406744
1.1118130146761678
1.1558821206148442
1.2013116520127038
1.248157291462037
1.2964754258742839
1.3463233085494344
1.3977592231813531
1.4508426454217065
1.5056344179245287
1.5621969089046028
1.620594195420944
1.6808922457126714
1.7431591110406384
1.8074651417049956
1.873880100689975
-3.3277492e-11
0.026534462431741845
0.053076287941359324
0.07963302539638467
0.10621259874417133
0.1328235027236081
0.1594750081589349
0.18617737938013773
0.21294210570861438
0.2397821479776108
0.2667121996735163
0.2937489603656389
0.3209114166055581
0.3482211223891418
0.3757024677348744
0.40338292028864214
0.4312932216967567
0.45946751864751256
0.48794340894447574
0.5167618866054151
0.5459671771599571
0.5756064645864916
0.6057295232442155
0.6363882795520586
0.6676363354976846
0.6995284911178496
0.7321202994298646
0.7654676805768356
0.7996266135110607
0.8346529127323691
0.8706020888820991
0.9075292860806724
0.9454892841798248
0.9845365535073519
1.0247253493922448
1.066109835329363
1.1087442254692932
1.152682939094137
1.1979807617990788
1.2446930096346196
1.2928756935972254
1.3425856841271961
1.3938808727968062
1.446820341425127
1.5014645159295692
1.5578753384959931
1.6161164363678604
1.6762532945384678
1.738353447502469
1.8024866735936755
1.868724217616654
-3.968248e-11
0.02651185449161675
0.053030530417820854
0.07956302767779638
0.10611670706776516
0.1326994800203253
0.15932000939764296
0.18598792454409677
0.212714053326062
0.23951067303594376
0.26639178071919145
0.2933733815352547
0.32047379103843304
0.3477139436999683
0.37511769562492786
0.4027121045937586
0.43052766595072584
0.4585984795646105
0.48696232249667426
0.5156606055032219
0.5447381998885135
0.5742431341556653
0.6042261755109922
0.6347403263862459
0.6658402764796985
0.6975818571617922
0.7300215387752327
0.7632160036623827
0.7972218151625201
0.8320951887076652
0.8678918604487935
0.9046670425206139
0.9424754482483958
0.9813713718123245
1.021408806837837
1.0626415911217433
1.1051235672067443
1.148908751335118
1.1940515053776193
1.240606708532428
1.288629926378876
1.3381775752712355
1.389307093005531
1.4420770883886227
1.4965475083185047
1.5527797969205455
1.610837054663048
1.6707842112109377
1.732688198152979
1.7966181334960365
1.8626469463595505
-4.5969728e-11
0.02648670183714802
0.052979615601238206
0.07948512282096187
0.1060099486783379
0.13256134430321997
0.1591472816871102
0.1857766651670608
0.2124595631278398
0.23920746289694447
0.266033550626963
0.29295301604538854
0.31998337904957885
0.34714483105753724
0.3744605787145692
0.40195717127245784
0.42966478644397643
0.4576174441670053
0.4858531154384276
0.5144136963304035
0.5433448270086673
0.5726955519641423
0.6025178383671304
0.6328659899320968
0.6637960085617112
0.695364962290008
0.7276304114962782
0.760649933131154
0.7944807646034646
0.8291795715045456
0.864802329796091
0.9014043054335654
0.9390401098463058
0.9777638107306057
1.0176290800066967
1.0586893642442712
1.100998066291406
1.1446087307447277
1.189575227921468
1.2359519320236236
1.2837939016831328
1.3331570382172606
1.3840982547217902
1.436675632730819
1.4909485773653786
1.5469779719835524
1.6048263297025112
1.664557956803115
1.7262391119961742
1.78993817879246
1.8557233208398614
-5.2261362e-11
0.026459508701665968
0.05292456210455171
0.07940086404972402
0.10589444157984668
0.13241181818127318
0.1589602012323092
0.18554768841627137
0.2121834977833628
0.23887822572568082
0.2656441361783322
0.2924954825881645
0.31944886120940125
0.3465235897585234
0.37374209913038053
0.4011303178567453
0.4287180200211587
0.45653909909525947
0.48463172528496357
0.5130383456873756
0.5418054975412979
0.570983425651163
0.6006255227453977
0.6307876396822425
0.6615273332741372
0.6929031268448235
0.7249738498054494
0.757798105187304
0.7914338873201034
0.8259383505067549
0.8613677122819059
0.8977772660535932
0.9352214751202139
0.9737541217730707
1.0134284902125223
1.0542975667644972
1.0964142453489134
1.139831531180453
1.1846027361563456
1.2307816734675814
1.2784228269390867
1.327581526981515
1.3783141106323202
1.4306780767146656
1.4847322366727949
1.540536857939944
1.5981538159241926
1.6576467372850963
1.7190811513478284
1.7825246464898277
1.8480464679792477
-5.8620775e-11
0.02643076527136623
0.052866360512478006
0.07931176273657248
0.10577224840451993
0.1322535558915643
0.15876206369378246
0.1853049899707847
0.2118906192393828
0.23852856195086086
0.265230052083141
0.292008286392374
0.31887880606773
0.3458599166661692
0.37297313485021777
0.4002436404493607
0.4277007003322353
0.4553780184190958
0.48331395738282645
0.5115515769143871
0.5401384453574842
0.5691262077982561
0.5985699308991033
0.6285272838090059
0.6590576435811866
0.6902212231187601
0.7220783069259114
0.7546886537476094
0.7881110889304408
0.8224032810416461
0.8576216763329152
0.8938215552975624
0.9310571748445476
0.9693819636695798
1.0088487459461613
1.049509975205757
1.0914179662308179
1.1346251167645776
1.1791841237936818
1.2251481717867232
1.272571121623832
1.3215076800585956
1.3720135598043268
1.4241456317620715
1.4779620653028673
1.5335224742486848
1.5908880489875656
1.650121693582443
1.711288163130181
1.7744542042842093
1.839693021011381
-6.5077999e-11
0.026400939425799685
0.052805956745660965
0.07921926316510758
0.10564534225550615
0.1320890998427029
0.15855603103243618
0.18505241080683352
0.2115855151976936
0.23816388039395095
0.26479760702583555
0.2914987158544175
0.31828155850219875
0.3451632818726895
0.3721643366401642
0.3993090080450933
0.42662593149222383
0.45414853811914646
0.4819153610264997
0.5099701280120577
0.5383615787026531
0.5671429768909775
0.5963713389995888
0.6261064540884518
0.6564098117506444
0.6873435669147705
0.71896965230812
0.7513491085422063
0.7845416547196624
0.8186054834557623
0.8535972399199858
0.8895721356114001
0.9265841498065358
0.9646862797635883
1.0039308110343708
1.0443695886497077
1.086054276103483
1.1290366040036628
1.1733685864232433
1.2191027311130207
1.2662922253297229
1.3149911071850524
1.3652544235269808
1.417138377359335
1.4707004630859497
1.525999602424913
1.583096267794868
1.6420526073218757
1.7029325686384649
1.7658020224655144
1.8307268985753014
-7.1844586e-11
0.026370469868610136
0.052744238196762105
0.0791247214274503
0.10551557801563394
0.131920843899468
0.15834508628461724
0.1847935829781549
0.21127253548840916
0.2377893249868513
0.2643528207546321
0.2909737504195993
0.31766513930335816
0.34444282142921157
0.37132601583112346
0.39833794750603385
0.425506472313807
0.4528646411505705
0.48045111615954106
0.5083103400126275
0.5364923698220959
0.5650523278548274
0.5940494887447858
0.6235460993598634
0.6536060855912467
0.6842938172248628
0.7156730747314655
0.7478063007721427
0.780754156259128
0.8145753486713966
0.849326672890873
0.88506319809052
0.9218385410164278
0.9597051799736446
0.9987147774090767
1.0389184903420978
1.0803672651654328
1.1231120944064314
1.167204258890742
1.212695539007053
1.2596384048038387
1.3080861869578184
1.3580932323926522
1.4097150425312641
1.4630084098973972
1.5180315366196848
1.5748441522231302
1.6335076253686256
1.6940850732645252
1.7566414692516936
1.8212404537540674
-7.8631546e-11
0.026339760659708944
0.052682022665788086
0.07902938850706165
0.1053846692026007
0.13175100352962757
0.15813199643861878
0.18453188462081288
0.21095573862341993
0.23740971240634678
0.2639013525599147
0.2904399800367622
0.3170371562435295
0.34370724126216123
0.3704680428924483
0.3973415389907127
0.4243546308053039
0.45153985275769415
0.47893593039347837
0.5065880556586029
0.5345477546904347
0.5628722723160413
0.5916234882753479
0.6208664879585126
0.6506679935984852
0.6810948847468419
0.7122129941165356
0.7440862771633425
0.7767763658879214
0.8103424509087793
0.8448414057425426
0.8803280653857561
0.9168555852222467
0.9544758278070926
0.993239741800191
1.0331977206603862
1.0743999165983258
1.1168965287442978
1.1607380517419439
1.2059754944567154
1.2526605718937205
1.3008458747212646
1.3505850206684307
1.401932788149773
1.454945243024533
1.5096798499175712
1.566195578650719
1.6245530035929734
1.684814398955879
1.747043829620574
1.8113038570869253
-8.5430718e-11
0.026309177131501937
0.052620050063144075
0.07893439751014675
0.10525417034248147
0.13158159281011467
0.15791928345456382
0.184270404285318
0.21063884870764732
0.23702948088131004
0.2634484414627403
0.289903536538365
0.31640472695910415
0.342964732519176
0.36959975690394165
0.3963303217760183
0.42318216874205183
0.45018714579494296
0.4773839461377043
0.5048185282818627
0.5325440428557682
0.5606201487126805
0.5891117226483044
0.6180871195349527
0.6476162594808963
0.6777688498657015
0.7086129827330407
0.7402142230616975
0.7726351795968897
0.8059354679983286
0.8401719451570206
0.8753991006702164
0.9116695160060693
0.9490343327456837
0.9875436933283944
1.0272471434454846
1.0681939765939177
1.1104335406293844
1.1540154971192553
1.198990044682656
1.245408111361197
1.2933215220913725
1.3427831418889622
1.393847009542088
1.4465684496375404
1.5010041769987557
1.5572123926827106
1.6152528702342184
1.6751870368972865
1.7370780480516366
1.8009875975631193
-9.0851104e-11
0.02627904314040791
0.05255897678816768
0.07884075492155518
0.10512546472126183
0.13141440815721628
0.1577092033222859
0.18401191454989005
0.21032522274806958
0.23665265031648353
0.26299885836366105
0.28937003728121224
0.315774414016908
0.3422228986778505
0.36872988614554747
0.3953142105280078
0.4220002162119478
0.4488188558687959
0.47580865766527664
0.503016340787445
0.5304968373986195
0.5583125423445096
0.586531774059844
0.6152266466049905
0.6444707265277703
0.6743368906514748
0.7048956963452844
0.7362143950062978
0.7683565486038333
0.8013821094381216
0.8353477963745672
0.8703076227261457
0.906313470564171
0.9434156473698097
0.9816633956454711
1.021105331060014
1.0617898241354615
1.103765319193663
1.147080603143681
1.1917850314400176
1.237928719287086
1.285562704915351
1.3347390874840843
1.385511152090232
1.4379334742211571
1.4920620140893592
1.5479542015439507
1.6056690099073423
1.6652670235149083
1.7268104955753683
1.7903617983657696
-9.0078889e-11
0.02624963957354426
0.052499372634533026
0.0787493356766335
0.10499975726185068
0.13125101850857104
0.1575037328972328
0.18375885470328174
0.21001782823419074
0.2362827937259451
0.26255687028488967
0.2888445413164178
0.31515217252966593
0.3414886948036178
0.36786648011658835
0.3943024221783056
0.4208191961140278
0.4474466061571676
0.4742228379506802
0.501195334638431
0.5284209649807141
0.5559652154022902
0.5839003519381789
0.6123028060787623
0.6412502921769945
0.67081922130776
0.7010828156489618
0.7321100629708837
0.7639654196320846
0.7967090520805205
0.8303973922407912
0.8650838270199803
0.9008194013763815
0.9376534742217695
0.975634286459441
1.0148094495804985
1.0552263494273408
1.0969324798562836
1.1399757173689933
1.1844045474540088
1.2302682533772813
1.2776170706313708
1.326502324536242
1.3769765404796113
1.4290935421693365
1.482908536093505
1.538478184566042
1.5958606679412275
1.6551157383166761
1.7163047619121423
1.7794970398473282
-9.0567054e-11
0.026221204022134903
0.052441720026803196
0.07866088175672764
0.1048780721648424
0.131092761553421
0.1573045640983774
0.18351332210807825
0.20971923067582798
0.23592301978509875
0.2621262166770341
0.2883315182390684
0.3145433106289644
0.3407683793538468
0.3670168533611981
0.39330341364912774
0.41964875865886725
0.4460812417940204
0.4726384751126298
0.49936854871671554
0.5263304159229458
0.5535930469611686
0.581233232949625
0.6093323609140622
0.6379728531535473
0.6672350413284592
0.6971949981103134
0.7279234621710834
0.7594856835978132
0.7919418830480459
0.8253480285243237
0.8597567117036246
0.8952179970659915
0.9317801700202438
0.9694903773504907
1.0083951520603265
1.0485408399649856
1.0899739436706
1.1327413998546432
1.1768908035427015
1.2224705916247562
1.2695301907446979
1.318120146441605
1.368292224581329
1.4200995000667804
1.473596431640714
1.5288389233884732
1.585884375353167
1.6447917240411742
1.7056214695041083
1.76843418803319
-9.5713715e-11
0.026193931466122145
0.05238641532797139
0.0785760039593939
0.10476125486878957
0.13094074548600698
0.15711310489970773
0.18327707167742113
0.20943159058483032
0.23557596610085973
0.2617100975607952
0.28783482969962515
0.3139524629930323
0.34006747888776095
0.36618754150861654
0.39232483074146113
0.41849772598554147
0.44473277373446557
0.4710667182834152
0.497548167903135
0.5242382942090698
0.5512099828618895
0.5785452108810182
0.6063310519394958
0.6346552612544327
0.6636024954161532
0.693251840066392
0.7236757540627768
0.7549401321636137
0.7871050492930789
0.8202258050043115
0.8543540126459049
0.8895386012544593
0.9258266640428033
0.9632641610461999
1.0018964789012075
1.0417688746601041
1.0829268257543674
1.1254163063628089
1.1692840069278754
1.2145775102895904
1.2613454317321093
1.309637537944368
1.3595048401566028
1.4109996722696383
1.464175755957157
1.5190882508512544
1.5757937940549824
1.634350528020262
1.6948181129376587
1.7572562332662074
-1.01335051e-10
0.026167975859424042
0.05233377195142197
0.07849518642502018
0.10464997779267532
0.130795855649265
0.15693048641199467
0.1830515227304427
0.2091566691887147
0.23524380257744323
0.26131117304367607
0.2873577233453237
0.3133835774602034
0.33939076595009904
0.3653842699289873
0.39137346855378957
0.417374047073848
0.44341033204444485
0.4695178327109337
0.49574548118295264
0.5221567772647165
0.548828995340224
0.5758500562823028
0.603313559800805
0.6313132897175089
0.6599386440540571
0.6892718487127572
0.7193869958814336
0.7503504213597798
0.7822218130161811
0.8150555709056453
0.8489021361236967
0.8838091438508203
0.9198223778047363
0.9569865251926174
0.9953457656761681
1.0349442264498379
1.0758263332807232
1.118037082170785
1.1616222518289812
1.2066285674433699
1.253103837133891
1.3010970546278697
1.3506584855601058
1.4018397348490859
1.454693801745681
1.5092751190201958
1.5656395829765692
1.6238445662998782
1.6839489201505862
1.7460123023939818
-1.06591402e-10
0.02614345245353733
0.052284024976381904
0.07841879347259362
0.1045447492702174
0.13065876535642884
0.1567575752404711
0.18283777234521223
0.20889584197934086
0.2349282440340477
0.26093157350511975
0.28690283871007705
0.31283991453991944
0.33874225024614246
0.3646119353485549
0.3904552438259892
0.41628476319163243
0.4421221285933983
0.4680011638848286
0.4939708490419924
0.5200970853126661
0.5464620522010968
0.573160485675844
0.600293476898129
0.6279616100581219
0.6562594443151455
0.6852724232762052
0.7150761178024052
0.7457370412620296
0.7773142113267446
0.8098608786394916
0.8434261030461931
0.878056073600563
0.9137951514277952
0.95068667289066
0.9887735587841906
1.0280987738335223
1.0687056734912335
1.1106382669713122
1.153941419032688
1.1986610028899476
1.244844025361199
1.2925387181231813
1.3417946145460686
1.3926626061589378
1.445194987660337
1.499445487302368
1.5554692830348142
1.613323007443373
1.673064735691952
1.7347564378698035
-1.11577247e-10
0.026120440696197345
0.052237336944629564
0.07834707827873222
0.10444592506218742
0.13052995012545068
0.15659499022388115
0.18263661421241323
0.20865011904146516
0.23463057102611787
0.26057291949676104
0.28647222429955177
0.31232405936933194
0.33812518301574646
0.36387460065406857
0.3895751795946596
0.4152359841712374
0.4408754291707177
0.4665251104680645
0.4922336798773216
0.518069460057036
0.5441200952708097
0.5704881400641004
0.5972832891004812
0.6246137790587074
0.6525797403273459
0.6812698444136605
0.7107609064959821
0.7411192905511272
0.772403023363077
0.8046639335149347
0.8379494938901835
0.8723042963730835
0.9077711759914504
0.944392050333345
0.9822085393539162
1.0212624217894477
1.0615959721731345
1.1032522113007046
1.1462750944220674
1.1907096520029115
1.2366021009456545
1.2839999261864552
1.3329519450564784
1.3835083543013549
1.4357207663055245
1.4896422264969131
1.545327222589901
1.6028316774479932
1.6622129258095577
1.723526377776621
-1.16071208e-10
0.026098987556728903
0.05219380453143124
0.07828019292789606
0.10435372181436992
0.13040970453973916
0.15644312261551646
0.18244856191578465
0.20842017098555451
0.23435165764886565
0.2602363501755334
0.28606736484203843
0.3118379453682744
0.33754207424838606
0.3631755029381653
0.38873740249026345
0.4142328758484904
0.4396765350978086
0.4650971058134845
0.49054241510645563
0.5160831524028191
0.5418130277994833
0.5678435723948421
0.5942943669436518
0.6212822354817635
0.6489132627172549
0.6772792708073383
0.7064579939221352
0.7365152548457087
0.7675077335385939
0.7994855545971946
0.8324943983916289
0.866577118538966
0.9017749321605555
0.9381282819432262
0.9756774558422439
1.0144630325202948
1.0545262030206266
1.095909005344075
1.1386544939699328
1.1828068715097149
1.228411580948756
1.2755153781778787
1.3241663843208884
1.3744141229102558
1.4263095464745104
1.4799050441394734
1.5352544416307214
1.5924129844660369
1.6514373038811831
1.7123828257959823
-1.20214005e-10
0.02607911112831679
0.05215346579169089
0.078218199380446
0.10426823184673578
0.13029816095414998
0.15630215875963627
0.18227387553108396
0.20820635923498357
0.23409200497343363
0.2599225588939815
0.285689217415984
0.31138288853732915
0.33699472207051373
0.36251707459329446
0.38794515289062814
0.41327965901063357
0.4385307744650166
0.4637236078545684
0.48890452262256323
0.514146418874568
0.5395497104272644
0.5652362435733258
0.5913369659368523
0.6179783060425608
0.64527263605844
0.6733147416225882
0.7021828499825074
0.7319417872814724
0.7626465044553699
0.794345134761527
0.8270813693138549
0.8608961956890222
0.8958291354779772
0.9319191134601466
0.9692050657853133
1.0077263664551632
1.0475231282564788
1.0886364172090885
1.1311084044295676
1.174982480591538
1.2203033351558885
1.2671170158586471
1.3154709691169344
1.3654140706581224
1.4169966361548705
1.4702704263161515
1.5252886345998302
1.5821058627330915
1.6407780758705164
1.7013616302409231
-1.24070421e-10
0.026060804369806012
0.052116307704465736
0.0781610809356097
0.10418943869573266
0.1301953093028542
0.15617210434458528
0.1821125904450738
0.20800876939436647
0.23385177869222457
0.259631834430032
0.28533825494273146
0.3109596310458844
0.3364842532984818
0.3619009769559091
0.38720080795928613
0.412379620171319
0.43744250318077527
0.46241009718318093
0.4873264982118184
0.5122665263602385
0.5373379652726572
0.5626745265440856
0.5884202355199168
0.6147122198969821
0.641669393119792
0.6693891833298289
0.6979497776347631
0.7274144930947908
0.7578361481492203
0.7892606044431717
0.8217293804949214
0.85528148707793
0.8899546887876476
0.9257863634578698
0.962814087148347
1.0010760338950413
1.0406112508420728
1.081459849478561
1.12366313717685
1.167263715239778
1.2123055416168387
1.2588339787793572
1.3068958251628322
1.3565393298902648
1.407814200763423
1.460771597436816
1.5154641119111607
1.5719457353810833
1.6302718051381269
1.6904984065502007
-1.27670485e-10
0.02604403886633977
0.05208227376880753
0.07810875380936833
0.10411723288536323
0.13010101732603233
0.15605280937429936
0.18196454734746864
0.207827246453759
0.2336308495356673
0.2593641062594573
0.2850145153674525
0.3105683924945266
0.33601117380922085
0.3613281456483624
0.3865059173355851
0.4115351344045611
0.4364151160690856
0.46116108316576754
0.4858138745244914
0.5104497647744546
0.5351845876500989
0.560165717901634
0.585552236125087
0.6114931307366946
0.638113994482669
0.6655144192856606
0.693771908733884
0.7229477104286177
0.7530920997491737
0.7842483984589794
0.8164557895509468
0.8497512162838067
0.8841706423019329
0.9197498837677711
0.9565251596837614
0.99453345762705
1.0338127785045041
1.0744023017547686
1.1163424958145898
1.1596751965796193
1.2044436562666423
1.2506925779251221
1.2984681357099523
1.3478179803768913
1.398791238355444
1.4514384970215142
1.5058117777523168
1.5619644948160507
1.6199513952084599
1.6798267910008946
-1.31038458e-10
0.026028768504779753
0.052051271439492786
0.07806107849901844
0.1040514274696917
0.13001505061203142
0.15594399308907703
0.18182942243662858
0.20766143065922993
0.23342883506814566
0.259118992264684
0.2847176547575407
0.31020892703305625
0.3355754270657342
0.3607988463857164
0.3858612509096431
0.4107477003094724
0.4354510682762646
0.45998011800256516
0.4843712371751151
0.5087014672107617
0.5330953648770074
0.5577160564297803
0.5827399637034942
0.60832914537589
0.6346158519056184
0.6617011804569193
0.6896612019560704
0.7185544962352216
0.7484283928472288
0.7793234262598059
0.8112763057597516
0.8443218386481203
0.8784941618395808
0.9138275292550563
0.9503568166430316
0.9881178467361165
1.0271475998334352
1.0674843503354272
1.1091677552600845
1.152238912984871
1.196740396409009
1.242716277645024
1.2902121317589925
1.3392750386518113
1.389953571083709
1.4422977730929682
1.4963591261005154
1.552190500935688
1.6098460909362393
1.669378051117684
-1.34163236e-10
0.026014932978802863
0.05202317922826427
0.07801787066290233
0.10399177296475992
0.1299370919442652
0.15584526817257124
0.1817067569962424
0.207510792996678
0.2332451415711288
0.2588958473336771
0.28444700253457883
0.30988058439195476
0.33517645887550246
0.3603127396393294
0.38526685772334046
0.4100179869322815
0.4345519072300786
0.45886981869850263
0.48300224754050336
0.5070260371357648
0.531075101588091
0.5553307479136025
0.579989380974258
0.6052273575086612
0.6311833536870202
0.6579591153776417
0.685628435750136
0.7142466099895267
0.7438576368871388
0.7744990461698951
0.8062049637539639
0.8390080160889344
0.8729405057332087
0.9080351373278253
0.9443254670987853
0.9818461817811308
1.0206332721327729
1.0607241377611043
1.1021576555697408
1.1449742156498621
1.1892157408216852
1.2349256984658048
1.2821490937644007
1.3309324626012398
1.3813238519240656
1.4333727913086798
1.4871302524019658
1.5426485953028064
1.5999814954705003
1.659181886431153
-1.37151124e-10
0.026002461058189208
0.051997853335592814
0.07797891130273416
0.10393797136681998
0.12986675954161062
0.15575616370163164
0.18159598563708274
0.20737466938305849
0.23307900486761496
0.25869381142643644
0.28420161712466685
0.30958237285432744
0.33481328628450874
0.35986895221476567
0.38472213461518723
0.40934589213902195
0.4337183153127103
0.45783189698233856
0.48170967182881447
0.5054269821703414
0.5291276509366861
0.553013995516418
0.5773054545413491
0.6021938851193429
0.6278238902348807
0.6542968004473538
0.6816832040716071
0.7100344982975956
0.7393909971414537
0.769787044316752
0.8012541037033081
0.8338225998604211
0.8675230108385994
0.9023865174644139
0.9384453890233513
0.9757332113436542
1.0142850204681357
1.0541373764970068
1.0953284077205472
1.1378978265598767
1.1818869378613408
1.2273386304476437
1.2742973682334373
1.3228091706179497
1.3729215864496527
1.4246836591970369
1.478145880593511
1.5333601316374663
1.590379604258265
1.649263097735426
-1.39977141e-10
0.025991273575012297
0.051975133714969146
0.07794395609248128
0.1038896890320169
0.12980362388156808
0.1556761464193022
0.18149646264450045
0.20725229282623706
0.2329295291217594
0.2585118558630882
0.28398034045596565
0.3093130222612187
0.33448456843812957
0.359466153544974
0.38422590280982066
0.4087306115220217
0.4329501632431067
0.4568671972702276
0.4804954160092674
0.5039069540053379
0.5272559510288839
0.5507690349662173
0.5746921968982526
0.5992339098563573
0.624543878124503
0.6507217435963525
0.6778339086973272
0.7059272804371433
0.7350381780520031
0.7651976190373434
0.7964343586568678
0.8287766217636197
0.862253087975949
0.896893450925068
0.9327287331437731
0.9697914598178993
1.0081157508704943
1.0477373637262415
1.0886937119063576
1.131023863144776
1.1747685321508632
1.2199700605212023
1.2666723979290766
1.3149210746450861
1.364763168741925
1.4162472653658025
1.4694234052866815
1.52434302092568
1.5810588533688141
1.639621813194344
-1.42648449e-10
0.025981286096453227
0.051954849506551326
0.07791274375175838
0.10384656826662936
0.12974722289197443
0.15560464003267194
0.18140748601987933
0.20714282299016956
0.2327957228473948
0.25834882680185267
0.28378184993875477
0.30907104530008744
0.3341886772825162
0.3591026343523416
0.38377649028696476
0.4081707164624581
0.43224657389941495
0.45597574280407266
0.4793605662210911
0.5024677940123604
0.5254620659055886
0.5485981737607987
0.5721527122287404
0.5963517165586479
0.621348780873057
0.6472403888655832
0.6740877509435315
0.7019327356457397
0.7308074108392484
0.7607393715561821
0.7917546496485582
0.8238792942027777
0.8571402270023665
0.8915657006768565
0.9271855374671184
0.9640312462255285
1.0021360722112056
1.0415350079311716
1.0822647869216429
1.1243638669550784
1.167872400812989
1.21283221248085
1.2592867649678727
1.3072811263645425
1.3568619306950183
1.408077331811154
1.4609769473016248
1.515611790287643
1.5720341825039494
1.6303028219087197
-1.45176426e-10
0.025972411269518214
0.05193682380786624
0.0778850034096209
0.1038082375439412
0.12969707538565045
0.15554104235073474
0.18132831894696166
0.20704537277552867
0.23267653156545154
0.25820348511077723
0.28360470681429006
0.308854795559695
0.33392376613403185
0.3587763853160333
0.38337181749553223
0.4076642395022063
0.43160599594546356
0.45515679008164933
0.47830543432154005
0.5011105841356683
0.523747230358605
0.5465028335096027
0.5696892446734024
0.5935507310849479
0.6182431268479134
0.6438581158651887
0.6704507231417024
0.6980572931762096
0.7267054463283003
0.7564193036682375
0.7872221890494102
0.819138019336921
0.8521920115639073
0.8864110314149767
0.9218237521826399
0.9584607136995206
0.9963543296497085
1.0355388665408047