 VARIABLES ="x" "y" "z"  "rho1" "u" "v" "w" "p"
 ZONE  T = B1-IG, I=51, J=51, K=2, DATAPACKING=BLOCK, VARLOCATION=([1-3]=NODAL,[4-8]=CELLCENTERED)
-0.550064327000000E-009
 0.265920142846441E-001
 0.531927438012347E-001
 0.798111068745700E-001
 0.106456427167784E+000
 0.133138642109490E+000
 0.159868516945735E+000
 0.186657864859288E+000
 0.213519773997509E+000
 0.240468840143391E+000
 0.267521402748044E+000
 0.294695780356987E+000
 0.322012499752250E+000
 0.349494511325382E+000
 0.377167381568386E+000
 0.405059452345397E+000
 0.433201956105050E+000
 0.461629076748070E+000
 0.490377947551901E+000
 0.519488580778510E+000
 0.549003727817897E+000
 0.578968674069583E+000
 0.609430977271766E+000
 0.640440162896942E+000
 0.672047396568093E+000
 0.704305148859659E+000
 0.737266873203603E+000
 0.770986712865249E+000
 0.805519249600852E+000
 0.840919302402863E+000
 0.877241780292877E+000
 0.914541589165917E+000
 0.952873589424835E+000
 0.992292599166218E+000
 0.103285343869294E+001
 0.107461100216900E+001
 0.111762035739099E+001
 0.116193686856409E+001
 0.120761632888779E+001
 0.125471510530912E+001
 0.130329029103496E+001
 0.135339986370958E+001
 0.140510284821708E+001
 0.145845948404679E+001
 0.151353139779462E+001
 0.157038178201695E+001
 0.162907558246180E+001
 0.168967969627224E+001
 0.175226318440755E+001
 0.181689750248475E+001
 0.188366349384754E+001
 0.515342770000000E-010
 0.265894436257076E-001
 0.531875434735498E-001
 0.798031569842061E-001
 0.106445546256251E+000
 0.133124585654053E+000
 0.159850975234393E+000
 0.186636461004824E+000
 0.213494062194658E+000
 0.240438304621805E+000
 0.267485457870606E+000
 0.294653772411549E+000
 0.321963710973048E+000
 0.349438166593233E+000
 0.377102658222315E+000
 0.404985493232356E+000
 0.433117885738016E+000
 0.461534020026874E+000
 0.490271050155714E+000
 0.519369029918009E+000
 0.548870771814356E+000
 0.578821639174063E+000
 0.609269281311917E+000
 0.640263320242161E+000
 0.671855020562956E+000
 0.704096949948048E+000
 0.737042649063623E+000
 0.770746335846218E+000
 0.805262651631107E+000
 0.840646459138335E+000
 0.876952694694878E+000
 0.914236276484865E+000
 0.952552063859337E+000
 0.991954862454998E+000
 0.103249946893208E+001
 0.107424074745259E+001
 0.111723373152270E+001
 0.116153374532867E+001
 0.120719653867871E+001
 0.125427843407358E+001
 0.130283647673089E+001
 0.135292859719744E+001
 0.140461377078444E+001
 0.145795218479818E+001
 0.151300541438027E+001
 0.156983659614926E+001
 0.162851061760297E+001
 0.168909431307655E+001
 0.175165667532481E+001
 0.181626908255678E+001
 0.188301167788859E+001
-0.132051590000000E-010
 0.265819755025187E-001
 0.531724335632694E-001
 0.797800560496286E-001
 0.106413925864400E+000
 0.133083733142692E+000
 0.159799987791966E+000
 0.186574239587777E+000
 0.213419306228940E+000
 0.240349508666859E+000
 0.267380911636361E+000
 0.294531565663336E+000
 0.321821744938125E+000
 0.349274173368985E+000
 0.376914229288321E+000
 0.404770117614562E+000
 0.432872997437792E+000
 0.461257053213024E+000
 0.489959499399679E+000
 0.519020511648631E+000
 0.548483082427739E+000
 0.578392804870467E+000
 0.608797594568842E+000
 0.639747363742939E+000
 0.671293672357416E+000
 0.703489369975194E+000
 0.736388253814021E+000
 0.770044761140236E+000
 0.804513708101483E+000
 0.839850084420901E+000
 0.876108905916936E+000
 0.913345125672173E+000
 0.951613598223025E+000
 0.990969090712757E+000
 0.103146633340958E+001
 0.107316010237459E+001
 0.111610532638372E+001
 0.116035721254145E+001
 0.120597138517032E+001
 0.125300403360765E+001
 0.130151206783071E+001
 0.135155327665949E+001
 0.140318649100442E+001
 0.145647175091959E+001
 0.151147047583363E+001
 0.156824564251978E+001
 0.162686196821320E+001
 0.168738610249370E+001
 0.174988684507275E+001
 0.181443535644200E+001
 0.188111026006577E+001
-0.200561230000000E-010
 0.265700159167722E-001
 0.531482349889488E-001
 0.797430565083131E-001
 0.106363274744717E+000
 0.133018282756423E+000
 0.159718283371796E+000
 0.186474508884318E+000
 0.213299450233914E+000
 0.240207095372473E+000
 0.267213175113975E+000
 0.294335413012162E+000
 0.321593773797903E+000
 0.349010702546739E+000
 0.376611344494153E+000
 0.404423733331033E+000
 0.432478934452278E+000
 0.460811129445202E+000
 0.489457629563666E+000
 0.518458809349131E+000
 0.547857956915334E+000
 0.577701044224495E+000
 0.608036427940197E+000
 0.638914498610006E+000
 0.670387302594210E+000
 0.702508154191324E+000
 0.735331272090524E+000
 0.768911452387866E+000
 0.803303795720909E+000
 0.838563496681753E+000
 0.874745697724095E+000
 0.911905405291270E+000
 0.950097462579307E+000
 0.989376570616227E+000
 0.102979734898298E+001
 0.107141442817209E+001
 0.111428256507699E+001
 0.115845677565292E+001
 0.120399247945810E+001
 0.125094565165408E+001
 0.129937298011564E+001
 0.134933202656573E+001
 0.140088138925179E+001
 0.145408086860863E+001
 0.150899163728327E+001
 0.156567641080266E+001
 0.162419963721315E+001
 0.168462767426454E+001
 0.174702899990658E+001
 0.181147442809384E+001
 0.187803781151478E+001
-0.267456060000000E-010
 0.265540169838009E-001
 0.531158608521297E-001
 0.796935501430364E-001
 0.106295489773823E+000
 0.132930671396893E+000
 0.159608882023505E+000
 0.186340922903150E+000
 0.213138839943269E+000
 0.240016165917423E+000
 0.266988173302930E+000
 0.294072134747638E+000
 0.321287585921618E+000
 0.348656582838082E+000
 0.376203942887579E+000
 0.403957456096971E+000
 0.431948051012212E+000
 0.460209898758851E+000
 0.488780439930640E+000
 0.517700322519911E+000
 0.547013245259406E+000
 0.576765709005147E+000
 0.607006688018657E+000
 0.637787241863312E+000
 0.669160095243421E+000
 0.701179211386528E+000
 0.733899393871251E+000
 0.767375933741800E+000
 0.801664320778780E+000
 0.836820026693890E+000
 0.872898361310559E+000
 0.909954397205128E+000
 0.948042954842932E+000
 0.987218638011927E+000
 0.102753590915433E+001
 0.106904919514067E+001
 0.111181301467617E+001
 0.115588212061484E+001
 0.120131165201270E+001
 0.124815729146204E+001
 0.129647542587428E+001
 0.134632330854943E+001
 0.139775922318135E+001
 0.145084264542171E+001
 0.150563441792453E+001
 0.156219690890460E+001
 0.162059419542094E+001
 0.168089224571267E+001
 0.174315911104064E+001
 0.180746514170500E+001
 0.187388010068998E+001
-0.332774920000000E-010
 0.265344624317418E-001
 0.530762879413593E-001
 0.796330253963847E-001
 0.106212598744171E+000
 0.132823502723608E+000
 0.159475008158935E+000
 0.186177379380138E+000
 0.212942105708614E+000
 0.239782147977611E+000
 0.266712199673516E+000
 0.293748960365639E+000
 0.320911416605558E+000
 0.348221122389142E+000
 0.375702467734874E+000
 0.403382920288642E+000
 0.431293221696757E+000
 0.459467518647513E+000
 0.487943408944476E+000
 0.516761886605415E+000
 0.545967177159957E+000
 0.575606464586492E+000
 0.605729523244215E+000
 0.636388279552059E+000
 0.667636335497685E+000
 0.699528491117850E+000
 0.732120299429865E+000
 0.765467680576836E+000
 0.799626613511061E+000
 0.834652912732369E+000
 0.870602088882099E+000
 0.907529286080672E+000
 0.945489284179825E+000
 0.984536553507352E+000
 0.102472534939224E+001
 0.106610983532936E+001
 0.110874422546929E+001
 0.115268293909414E+001
 0.119798076179908E+001
 0.124469300963462E+001
 0.129287569359723E+001
 0.134258568412720E+001
 0.139388087279681E+001
 0.144682034142513E+001
 0.150146451592957E+001
 0.155787533849599E+001
 0.161611643636786E+001
 0.167625329453847E+001
 0.173835344750247E+001
 0.180248667359368E+001
 0.186872421761665E+001
-0.396824800000000E-010
 0.265118544916167E-001
 0.530305304178209E-001
 0.795630276777964E-001
 0.106116707067765E+000
 0.132699480020325E+000
 0.159320009397643E+000
 0.185987924544097E+000
 0.212714053326062E+000
 0.239510673035944E+000
 0.266391780719191E+000
 0.293373381535255E+000
 0.320473791038433E+000
 0.347713943699968E+000
 0.375117695624928E+000
 0.402712104593759E+000
 0.430527665950726E+000
 0.458598479564610E+000
 0.486962322496674E+000
 0.515660605503222E+000
 0.544738199888513E+000
 0.574243134155665E+000
 0.604226175510992E+000
 0.634740326386246E+000
 0.665840276479698E+000
 0.697581857161792E+000
 0.730021538775233E+000
 0.763216003662383E+000
 0.797221815162520E+000
 0.832095188707665E+000
 0.867891860448794E+000
 0.904667042520614E+000
 0.942475448248396E+000
 0.981371371812324E+000
 0.102140880683784E+001
 0.106264159112174E+001
 0.110512356720674E+001
 0.114890875133512E+001
 0.119405150537762E+001
 0.124060670853243E+001
 0.128862992637888E+001
 0.133817757527124E+001
 0.138930709300553E+001
 0.144207708838862E+001
 0.149654750831850E+001
 0.155277979692055E+001
 0.161083705466305E+001
 0.167078421121094E+001
 0.173268819815298E+001
 0.179661813349604E+001
 0.186264694635955E+001
-0.459697280000000E-010
 0.264867018371480E-001
 0.529796156012382E-001
 0.794851228209619E-001
 0.106009948678338E+000
 0.132561344303220E+000
 0.159147281687110E+000
 0.185776665167061E+000
 0.212459563127840E+000
 0.239207462896944E+000
 0.266033550626963E+000
 0.292953016045389E+000
 0.319983379049579E+000
 0.347144831057537E+000
 0.374460578714569E+000
 0.401957171272458E+000
 0.429664786443976E+000
 0.457617444167005E+000
 0.485853115438428E+000
 0.514413696330403E+000
 0.543344827008667E+000
 0.572695551964142E+000
 0.602517838367130E+000
 0.632865989932097E+000
 0.663796008561711E+000
 0.695364962290008E+000
 0.727630411496278E+000
 0.760649933131154E+000
 0.794480764603465E+000
 0.829179571504546E+000
 0.864802329796091E+000
 0.901404305433565E+000
 0.939040109846306E+000
 0.977763810730606E+000
 0.101762908000670E+001
 0.105868936424427E+001
 0.110099806629141E+001
 0.114460873074473E+001
 0.118957522792147E+001
 0.123595193202362E+001
 0.128379390168313E+001
 0.133315703821726E+001
 0.138409825472179E+001
 0.143667563273082E+001
 0.149094857736538E+001
 0.154697797198355E+001
 0.160482632970251E+001
 0.166455795680312E+001
 0.172623911199617E+001
 0.178993817879246E+001
 0.185572332083986E+001
-0.522613620000000E-010
 0.264595087016660E-001
 0.529245621045517E-001
 0.794008640497240E-001
 0.105894441579847E+000
 0.132411818181273E+000
 0.158960201232309E+000
 0.185547688416271E+000
 0.212183497783363E+000
 0.238878225725681E+000
 0.265644136178332E+000
 0.292495482588164E+000
 0.319448861209401E+000
 0.346523589758523E+000
 0.373742099130381E+000
 0.401130317856745E+000
 0.428718020021159E+000
 0.456539099095259E+000
 0.484631725284964E+000
 0.513038345687376E+000
 0.541805497541298E+000
 0.570983425651163E+000
 0.600625522745398E+000
 0.630787639682242E+000
 0.661527333274137E+000
 0.692903126844823E+000
 0.724973849805449E+000
 0.757798105187304E+000
 0.791433887320103E+000
 0.825938350506755E+000
 0.861367712281906E+000
 0.897777266053593E+000
 0.935221475120214E+000
 0.973754121773071E+000
 0.101342849021252E+001
 0.105429756676450E+001
 0.109641424534891E+001
 0.113983153118045E+001
 0.118460273615635E+001
 0.123078167346758E+001
 0.127842282693909E+001
 0.132758152698151E+001
 0.137831411063232E+001
 0.143067807671467E+001
 0.148473223667279E+001
 0.154053685793994E+001
 0.159815381592419E+001
 0.165764673728510E+001
 0.171908115134783E+001
 0.178252464648983E+001
 0.184804646797925E+001
-0.586207750000000E-010
 0.264307652713662E-001
 0.528663605124780E-001
 0.793117627365725E-001
 0.105772248404520E+000
 0.132253555891564E+000
 0.158762063693782E+000
 0.185304989970785E+000
 0.211890619239383E+000
 0.238528561950861E+000
 0.265230052083141E+000
 0.292008286392374E+000
 0.318878806067730E+000
 0.345859916666169E+000
 0.372973134850218E+000
 0.400243640449361E+000
 0.427700700332235E+000
 0.455378018419096E+000
 0.483313957382826E+000
 0.511551576914387E+000
 0.540138445357484E+000
 0.569126207798256E+000
 0.598569930899103E+000
 0.628527283809006E+000
 0.659057643581187E+000
 0.690221223118760E+000
 0.722078306925911E+000
 0.754688653747609E+000
 0.788111088930441E+000
 0.822403281041646E+000
 0.857621676332915E+000
 0.893821555297562E+000
 0.931057174844548E+000
 0.969381963669580E+000
 0.100884874594616E+001
 0.104950997520576E+001
 0.109141796623082E+001
 0.113462511676458E+001
 0.117918412379368E+001
 0.122514817178672E+001
 0.127257112162383E+001
 0.132150768005860E+001
 0.137201355980433E+001
 0.142414563176207E+001
 0.147796206530287E+001
 0.153352247424868E+001
 0.159088804898757E+001
 0.165012169358244E+001
 0.171128816313018E+001
 0.177445420428421E+001
 0.183969302101138E+001
-0.650779990000000E-010
 0.264009394257997E-001
 0.528059567456610E-001
 0.792192631651076E-001
 0.105645342255506E+000
 0.132089099842703E+000
 0.158556031032436E+000
 0.185052410806834E+000
 0.211585515197694E+000
 0.238163880393951E+000
 0.264797607025836E+000
 0.291498715854418E+000
 0.318281558502199E+000
 0.345163281872690E+000
 0.372164336640164E+000
 0.399309008045093E+000
 0.426625931492224E+000
 0.454148538119146E+000
 0.481915361026500E+000
 0.509970128012058E+000
 0.538361578702653E+000
 0.567142976890977E+000
 0.596371338999589E+000
 0.626106454088452E+000
 0.656409811750644E+000
 0.687343566914770E+000
 0.718969652308120E+000
 0.751349108542206E+000
 0.784541654719662E+000
 0.818605483455762E+000
 0.853597239919986E+000
 0.889572135611400E+000
 0.926584149806536E+000
 0.964686279763588E+000
 0.100393081103437E+001
 0.104436958864971E+001
 0.108605427610348E+001
 0.112903660400366E+001
 0.117336858642324E+001
 0.121910273111302E+001
 0.126629222532972E+001
 0.131499110718505E+001
 0.136525442352698E+001
 0.141713837735933E+001
 0.147070046308595E+001
 0.152599960242491E+001
 0.158309626779487E+001
 0.164205260732188E+001
 0.170293256863846E+001
 0.176580202246551E+001
 0.183072689857530E+001
-0.718445860000000E-010
 0.263704698686101E-001
 0.527442381967621E-001
 0.791247214274503E-001
 0.105515578015634E+000
 0.131920843899468E+000
 0.158345086284617E+000
 0.184793582978155E+000
 0.211272535488409E+000
 0.237789324986851E+000
 0.264352820754632E+000
 0.290973750419599E+000
 0.317665139303358E+000
 0.344442821429212E+000
 0.371326015831123E+000
 0.398337947506034E+000
 0.425506472313807E+000
 0.452864641150571E+000
 0.480451116159541E+000
 0.508310340012628E+000
 0.536492369822096E+000
 0.565052327854827E+000
 0.594049488744786E+000
 0.623546099359863E+000
 0.653606085591247E+000
 0.684293817224863E+000
 0.715673074731465E+000
 0.747806300772143E+000
 0.780754156259128E+000
 0.814575348671397E+000
 0.849326672890873E+000
 0.885063198090520E+000
 0.921838541016428E+000
 0.959705179973645E+000
 0.998714777409077E+000
 0.103891849034210E+001
 0.108036726516543E+001
 0.112311209440643E+001
 0.116720425889074E+001
 0.121269553900705E+001
 0.125963840480384E+001
 0.130808618695782E+001
 0.135809323239265E+001
 0.140971504253126E+001
 0.146300840989740E+001
 0.151803153661968E+001
 0.157484415222313E+001
 0.163350762536863E+001
 0.169408507326453E+001
 0.175664146925169E+001
 0.182124045375407E+001
-0.786315460000000E-010
 0.263397606597089E-001
 0.526820226657881E-001
 0.790293885070616E-001
 0.105384669202601E+000
 0.131751003529628E+000
 0.158131996438619E+000
 0.184531884620813E+000
 0.210955738623420E+000
 0.237409712406347E+000
 0.263901352559915E+000
 0.290439980036762E+000
 0.317037156243530E+000
 0.343707241262161E+000
 0.370468042892448E+000
 0.397341538990713E+000
 0.424354630805304E+000
 0.451539852757694E+000
 0.478935930393478E+000
 0.506588055658603E+000
 0.534547754690435E+000
 0.562872272316041E+000
 0.591623488275348E+000
 0.620866487958513E+000
 0.650667993598485E+000
 0.681094884746842E+000
 0.712212994116536E+000
 0.744086277163343E+000
 0.776776365887921E+000
 0.810342450908779E+000
 0.844841405742543E+000
 0.880328065385756E+000
 0.916855585222247E+000
 0.954475827807093E+000
 0.993239741800191E+000
 0.103319772066039E+001
 0.107439991659833E+001
 0.111689652874430E+001
 0.116073805174194E+001
 0.120597549445672E+001
 0.125266057189372E+001
 0.130084587472126E+001
 0.135058502066843E+001
 0.140193278814977E+001
 0.145494524302453E+001
 0.150967984991757E+001
 0.156619557865072E+001
 0.162455300359297E+001
 0.168481439895588E+001
 0.174704382962057E+001
 0.181130385708693E+001
-0.854307180000000E-010
 0.263091771315019E-001
 0.526200500631441E-001
 0.789343975101467E-001
 0.105254170342481E+000
 0.131581592810115E+000
 0.157919283454564E+000
 0.184270404285318E+000
 0.210638848707647E+000
 0.237029480881310E+000
 0.263448441462740E+000
 0.289903536538365E+000
 0.316404726959104E+000
 0.342964732519176E+000
 0.369599756903942E+000
 0.396330321776018E+000
 0.423182168742052E+000
 0.450187145794943E+000
 0.477383946137704E+000
 0.504818528281863E+000
 0.532544042855768E+000
 0.560620148712681E+000
 0.589111722648304E+000
 0.618087119534953E+000
 0.647616259480896E+000
 0.677768849865702E+000
 0.708612982733041E+000
 0.740214223061697E+000
 0.772635179596890E+000
 0.805935467998329E+000
 0.840171945157021E+000
 0.875399100670216E+000
 0.911669516006069E+000
 0.949034332745684E+000
 0.987543693328394E+000
 0.102724714344548E+001
 0.106819397659392E+001
 0.111043354062938E+001
 0.115401549711926E+001
 0.119899004468266E+001
 0.124540811136120E+001
 0.129332152209137E+001
 0.134278314188896E+001
 0.139384700954209E+001
 0.144656844963754E+001
 0.150100417699876E+001
 0.155721239268271E+001
 0.161525287023422E+001
 0.167518703689729E+001
 0.173707804805164E+001
 0.180098759756312E+001
-0.908511040000000E-010
 0.262790431404079E-001
 0.525589767881677E-001
 0.788407549215552E-001
 0.105125464721262E+000
 0.131414408157216E+000
 0.157709203322286E+000
 0.184011914549890E+000
 0.210325222748070E+000
 0.236652650316484E+000
 0.262998858363661E+000
 0.289370037281212E+000
 0.315774414016908E+000
 0.342222898677850E+000
 0.368729886145547E+000
 0.395314210528008E+000
 0.422000216211948E+000
 0.448818855868796E+000
 0.475808657665277E+000
 0.503016340787445E+000
 0.530496837398620E+000
 0.558312542344510E+000
 0.586531774059844E+000
 0.615226646604990E+000
 0.644470726527770E+000
 0.674336890651475E+000
 0.704895696345284E+000
 0.736214395006298E+000
 0.768356548603833E+000
 0.801382109438122E+000
 0.835347796374567E+000
 0.870307622726146E+000
 0.906313470564171E+000
 0.943415647369810E+000
 0.981663395645471E+000
 0.102110533106001E+001
 0.106178982413546E+001
 0.110376531919366E+001
 0.114708060314368E+001
 0.119178503144002E+001
 0.123792871928709E+001
 0.128556270491535E+001
 0.133473908748408E+001
 0.138551115209023E+001
 0.143793347422116E+001
 0.149206201408936E+001
 0.154795420154395E+001
 0.160566900990734E+001
 0.166526702351491E+001
 0.172681049557537E+001
 0.179036179836577E+001
-0.900788890000000E-010
 0.262496395735443E-001
 0.524993726345330E-001
 0.787493356766335E-001
 0.104999757261851E+000
 0.131251018508571E+000
 0.157503732897233E+000
 0.183758854703282E+000
 0.210017828234191E+000
 0.236282793725945E+000
 0.262556870284890E+000
 0.288844541316418E+000
 0.315152172529666E+000
 0.341488694803618E+000
 0.367866480116588E+000
 0.394302422178306E+000
 0.420819196114028E+000
 0.447446606157168E+000
 0.474222837950680E+000
 0.501195334638431E+000
 0.528420964980714E+000
 0.555965215402290E+000
 0.583900351938179E+000
 0.612302806078762E+000
 0.641250292176994E+000
 0.670819221307760E+000
 0.701082815648962E+000
 0.732110062970884E+000
 0.763965419632085E+000
 0.796709052080520E+000
 0.830397392240791E+000
 0.865083827019980E+000
 0.900819401376382E+000
 0.937653474221769E+000
 0.975634286459441E+000
 0.101480944958050E+001
 0.105522634942734E+001
 0.109693247985628E+001
 0.113997571736899E+001
 0.118440454745401E+001
 0.123026825337728E+001
 0.127761707063137E+001
 0.132650232453624E+001
 0.137697654047961E+001
 0.142909354216934E+001
 0.148290853609351E+001
 0.153847818456604E+001
 0.159586066794123E+001
 0.165511573831668E+001
 0.171630476191214E+001
 0.177949703984733E+001
-0.905670540000000E-010
 0.262212040221349E-001
 0.524417200268032E-001
 0.786608817567276E-001
 0.104878072164842E+000
 0.131092761553421E+000
 0.157304564098377E+000
 0.183513322108078E+000
 0.209719230675828E+000
 0.235923019785099E+000
 0.262126216677034E+000
 0.288331518239068E+000
 0.314543310628964E+000
 0.340768379353847E+000
 0.367016853361198E+000
 0.393303413649128E+000
 0.419648758658867E+000
 0.446081241794020E+000
 0.472638475112630E+000
 0.499368548716716E+000
 0.526330415922946E+000
 0.553593046961169E+000
 0.581233232949625E+000
 0.609332360914062E+000
 0.637972853153547E+000
 0.667235041328459E+000
 0.697194998110313E+000
 0.727923462171083E+000
 0.759485683597813E+000
 0.791941883048046E+000
 0.825348028524324E+000
 0.859756711703625E+000
 0.895217997065991E+000
 0.931780170020244E+000
 0.969490377350491E+000
 0.100839515206033E+001
 0.104854083996499E+001
 0.108997394367060E+001
 0.113274139985464E+001
 0.117689080354270E+001
 0.122247059162476E+001
 0.126953019074470E+001
 0.131812014644161E+001
 0.136829222458133E+001
 0.142009950006678E+001
 0.147359643164071E+001
 0.152883892338847E+001
 0.158588437535317E+001
 0.164479172404117E+001
 0.170562146950411E+001
 0.176843418803319E+001
-0.957137150000000E-010
 0.261939314661221E-001
 0.523864153279714E-001
 0.785760039593939E-001
 0.104761254868790E+000
 0.130940745486007E+000
 0.157113104899708E+000
 0.183277071677421E+000
 0.209431590584830E+000
 0.235575966100860E+000
 0.261710097560795E+000
 0.287834829699625E+000
 0.313952462993032E+000
 0.340067478887761E+000
 0.366187541508617E+000
 0.392324830741461E+000
 0.418497725985541E+000
 0.444732773734466E+000
 0.471066718283415E+000
 0.497548167903135E+000
 0.524238294209070E+000
 0.551209982861889E+000
 0.578545210881018E+000
 0.606331051939496E+000
 0.634655261254433E+000
 0.663602495416153E+000
 0.693251840066392E+000
 0.723675754062777E+000
 0.754940132163614E+000
 0.787105049293079E+000
 0.820225805004312E+000
 0.854354012645905E+000
 0.889538601254459E+000
 0.925826664042803E+000
 0.963264161046200E+000
 0.100189647890121E+001
 0.104176887466010E+001
 0.108292682575437E+001
 0.112541630636281E+001
 0.116928400692788E+001
 0.121457751028959E+001
 0.126134543173211E+001
 0.130963753794437E+001
 0.135950484015660E+001
 0.141099967226964E+001
 0.146417575595716E+001
 0.151908825085125E+001
 0.157579379405498E+001
 0.163435052802026E+001
 0.169481811293766E+001
 0.175725623326621E+001
-0.101335051000000E-009
 0.261679758594240E-001
 0.523337719514220E-001
 0.784951864250202E-001
 0.104649977792675E+000
 0.130795855649265E+000
 0.156930486411995E+000
 0.183051522730443E+000
 0.209156669188715E+000
 0.235243802577443E+000
 0.261311173043676E+000
 0.287357723345324E+000
 0.313383577460203E+000
 0.339390765950099E+000
 0.365384269928987E+000
 0.391373468553790E+000
 0.417374047073848E+000
 0.443410332044445E+000
 0.469517832710934E+000
 0.495745481182953E+000
 0.522156777264717E+000
 0.548828995340224E+000
 0.575850056282303E+000
 0.603313559800805E+000
 0.631313289717509E+000
 0.659938644054057E+000
 0.689271848712757E+000
 0.719386995881434E+000
 0.750350421359780E+000
 0.782221813016181E+000
 0.815055570905645E+000
 0.848902136123697E+000
 0.883809143850820E+000
 0.919822377804736E+000
 0.956986525192617E+000
 0.995345765676168E+000
 0.103494422644984E+001
 0.107582633328072E+001
 0.111803708217079E+001
 0.116162225182898E+001
 0.120662856744337E+001
 0.125310383713389E+001
 0.130109705462787E+001
 0.135065848556011E+001
 0.140183973484909E+001
 0.145469380174568E+001
 0.150927511902020E+001
 0.156563958297657E+001
 0.162384456629988E+001
 0.168394892015059E+001
 0.174601230239398E+001
-0.106591402000000E-009
 0.261434524535373E-001
 0.522840249763819E-001
 0.784187934725936E-001
 0.104544749270217E+000
 0.130658765356429E+000
 0.156757575240471E+000
 0.182837772345212E+000
 0.208895841979341E+000
 0.234928244034048E+000
 0.260931573505120E+000
 0.286902838710077E+000
 0.312839914539919E+000
 0.338742250246142E+000
 0.364611935348555E+000
 0.390455243825989E+000
 0.416284763191632E+000
 0.442122128593398E+000
 0.468001163884829E+000
 0.493970849041992E+000
 0.520097085312666E+000
 0.546462052201097E+000
 0.573160485675844E+000
 0.600293476898129E+000
 0.627961610058122E+000
 0.656259444315145E+000
 0.685272423276205E+000
 0.715076117802405E+000
 0.745737041262030E+000
 0.777314211326745E+000
 0.809860878639492E+000
 0.843426103046193E+000
 0.878056073600563E+000
 0.913795151427795E+000
 0.950686672890660E+000
 0.988773558784191E+000
 0.102809877383352E+001
 0.106870567349123E+001
 0.111063826697131E+001
 0.115394141903269E+001
 0.119866100288995E+001
 0.124484402536120E+001
 0.129253871812318E+001
 0.134179461454607E+001
 0.139266260615894E+001
 0.144519498766034E+001
 0.149944548730237E+001
 0.155546928303481E+001
 0.161332300744337E+001
 0.167306473569195E+001
 0.173475643786980E+001
-0.111577247000000E-009
 0.261204406961973E-001
 0.522373369446296E-001
 0.783470782787322E-001
 0.104445925062187E+000
 0.130529950125451E+000
 0.156594990223881E+000
 0.182636614212413E+000
 0.208650119041465E+000
 0.234630571026118E+000
 0.260572919496761E+000
 0.286472224299552E+000
 0.312324059369332E+000
 0.338125183015746E+000
 0.363874600654069E+000
 0.389575179594660E+000
 0.415235984171237E+000
 0.440875429170718E+000
 0.466525110468064E+000
 0.492233679877322E+000
 0.518069460057036E+000
 0.544120095270810E+000
 0.570488140064100E+000
 0.597283289100481E+000
 0.624613779058707E+000
 0.652579740327346E+000
 0.681269844413660E+000
 0.710760906495982E+000
 0.741119290551127E+000
 0.772403023363077E+000
 0.804663933514935E+000
 0.837949493890183E+000
 0.872304296373083E+000
 0.907771175991450E+000
 0.944392050333345E+000
 0.982208539353916E+000
 0.102126242178945E+001
 0.106159597217313E+001
 0.110325221130070E+001
 0.114627509442207E+001
 0.119070965200291E+001
 0.123660210094565E+001
 0.128399992618646E+001
 0.133295194505648E+001
 0.138350835430135E+001
 0.143572076630552E+001
 0.148964222649691E+001
 0.154532722258990E+001
 0.160283167744799E+001
 0.166221292580956E+001
 0.172352637777662E+001
-0.116071208000000E-009
 0.260989875567289E-001
 0.521938045314312E-001
 0.782801929278961E-001
 0.104353721814370E+000
 0.130409704539739E+000
 0.156443122615516E+000
 0.182448561915785E+000
 0.208420170985555E+000
 0.234351657648866E+000
 0.260236350175533E+000
 0.286067364842038E+000
 0.311837945368274E+000
 0.337542074248386E+000
 0.363175502938165E+000
 0.388737402490263E+000
 0.414232875848490E+000
 0.439676535097809E+000
 0.465097105813485E+000
 0.490542415106456E+000
 0.516083152402819E+000
 0.541813027799483E+000
 0.567843572394842E+000
 0.594294366943652E+000
 0.621282235481764E+000
 0.648913262717255E+000
 0.677279270807338E+000
 0.706457993922135E+000
 0.736515254845709E+000
 0.767507733538594E+000
 0.799485554597195E+000
 0.832494398391629E+000
 0.866577118538966E+000
 0.901774932160555E+000
 0.938128281943226E+000
 0.975677455842244E+000
 0.101446303252029E+001
 0.105452620302063E+001
 0.109590900534407E+001
 0.113865449396993E+001
 0.118280687150971E+001
 0.122841158094876E+001
 0.127551537817788E+001
 0.132416638432089E+001
 0.137441412291026E+001
 0.142630954647451E+001
 0.147990504413947E+001
 0.153525444163072E+001
 0.159241298446604E+001
 0.165143730388118E+001
 0.171238282579598E+001
-0.120214005000000E-009
 0.260791111283168E-001
 0.521534657916909E-001
 0.782181993804460E-001
 0.104268231846736E+000
 0.130298160954150E+000
 0.156302158759636E+000
 0.182273875531084E+000
 0.208206359234984E+000
 0.234092004973434E+000
 0.259922558893982E+000
 0.285689217415984E+000
 0.311382888537329E+000
 0.336994722070514E+000
 0.362517074593294E+000
 0.387945152890628E+000
 0.413279659010634E+000
 0.438530774465017E+000
 0.463723607854568E+000
 0.488904522622563E+000
 0.514146418874568E+000
 0.539549710427264E+000
 0.565236243573326E+000
 0.591336965936852E+000
 0.617978306042561E+000
 0.645272636058440E+000
 0.673314741622588E+000
 0.702182849982507E+000
 0.731941787281472E+000
 0.762646504455370E+000
 0.794345134761527E+000
 0.827081369313855E+000
 0.860896195689022E+000
 0.895829135477977E+000
 0.931919113460147E+000
 0.969205065785313E+000
 0.100772636645516E+001
 0.104752312825648E+001
 0.108863641720909E+001
 0.113110840442957E+001
 0.117498248059154E+001
 0.122030333515589E+001
 0.126711701585865E+001
 0.131547096911693E+001
 0.136541407065812E+001
 0.141699663615487E+001
 0.147027042631615E+001
 0.152528863459983E+001
 0.158210586273309E+001
 0.164077807587052E+001
 0.170136163024092E+001
-0.124070421000000E-009
 0.260608043698060E-001
 0.521163077044657E-001
 0.781610809356097E-001
 0.104189438695733E+000
 0.130195309302854E+000
 0.156172104344585E+000
 0.182112590445074E+000
 0.208008769394366E+000
 0.233851778692225E+000
 0.259631834430032E+000
 0.285338254942731E+000
 0.310959631045884E+000
 0.336484253298482E+000
 0.361900976955909E+000
 0.387200807959286E+000
 0.412379620171319E+000
 0.437442503180775E+000
 0.462410097183181E+000
 0.487326498211818E+000
 0.512266526360239E+000
 0.537337965272657E+000
 0.562674526544086E+000
 0.588420235519917E+000
 0.614712219896982E+000
 0.641669393119792E+000
 0.669389183329829E+000
 0.697949777634763E+000
 0.727414493094791E+000
 0.757836148149220E+000
 0.789260604443172E+000
 0.821729380494921E+000
 0.855281487077930E+000
 0.889954688787648E+000
 0.925786363457870E+000
 0.962814087148347E+000
 0.100107603389504E+001
 0.104061125084207E+001
 0.108145984947856E+001
 0.112366313717685E+001
 0.116726371523978E+001
 0.121230554161684E+001
 0.125883397877936E+001
 0.130689582516283E+001
 0.135653932989026E+001
 0.140781420076342E+001
 0.146077159743682E+001
 0.151546411191116E+001
 0.157194573538108E+001
 0.163027180513813E+001
 0.169049840655020E+001
-0.127670485000000E-009
 0.260440388663398E-001
 0.520822737688075E-001
 0.781087538093683E-001
 0.104117232885363E+000
 0.130101017326032E+000
 0.156052809374299E+000
 0.181964547347469E+000
 0.207827246453759E+000
 0.233630849535667E+000
 0.259364106259457E+000
 0.285014515367452E+000
 0.310568392494527E+000
 0.336011173809221E+000
 0.361328145648362E+000
 0.386505917335585E+000
 0.411535134404561E+000
 0.436415116069086E+000
 0.461161083165768E+000