 TITLE     = "GRIB mesh" 
 VARIABLES = "X", "Y", "Z" 
 ZONE T="BLOCCO 1" 
 I=191, J= 41, K=  2, ZONETYPE=Ordered 
 DATAPACKING=BLOCK 
0.0
0.001424507295610694
0.002847585762857929
0.004267816863221051
0.005683802765570511
0.007094176145771396
0.00849760951267891
0.009892823811570445
0.011278596276850406
0.0126537672850019
0.014017246318389201
0.015368016702822528
0.016705139521694667
0.018027756295320392
0.01933509073910182
0.020626449529190613
0.021901222192557017
0.02315888018749146
0.024398975291070064
0.02562113737227665
0.026825071660578438
0.028010555609692414
0.02917743544825288
0.03032562250919678
0.031455089407480985
0.03256586614822442
0.033658036218065415
0.03473173271217115
0.03578713453835687
0.03682446273059653
0.03784397689876898
0.03884597181761193
0.039830774196527544
0.040798739601633244
0.04175024954989098
0.04268570876961397
0.04360554262208051
0.04451019467749286
0.045400124439940646
0.04627580518056491
0.04713772195709401
0.04798636976275177
0.04882225168438972
0.04964587725921178
0.05045776091385979
0.05125842049375265
0.05204837588271127
0.05282814770993277
0.053598256138849026
0.05435921973658514
0.05511155441993275
0.055855772474552146
0.05659238164508615
0.05732188429312593
0.058044776619222846
0.05876154794834939
0.05947268007159376
0.06017864664442995
0.060879912636313004
0.06157693383016387
0.06227015636911157
0.0629600163431563
0.06364693942363414
0.06433134045060429
0.06501362347103927
0.0656941809979228
0.0663733941236971
0.0670516322617796
0.06772925301216864
0.06840660206121882
0.06908401312477373
0.06976180792491865
0.07044029621626147
0.07111977584493542
0.07180053284951654
0.0724828416019614
0.07316696498597572
0.07385315461134045
0.07454165106355758
0.07523268418328705
0.07592647337474603
0.0766232279401004
0.0773231474346811
0.07802642204025598
0.07873323295239906
0.07944375277864871
0.08015814594303738
0.08087656909438402
0.08159917151477537
0.0823260955253724
0.0830574768869537
0.08379344519289136
0.08453412425257983
0.08527963246314316
0.08603008317084604
0.0867855850154398
0.08754624226226364
0.08831215506609727
0.08908341998483123
0.08986012994437657
0.09064237473510783
0.09143024124769673
0.092223813625953
0.09302317339802704
0.09382840003327333
0.0946395708848338
0.09545676141243732
0.09628004530248489
0.0971094949003359
0.09794518096359281
0.09878717306404083
0.09963553965344318
0.10049034818563277
0.1013516652280067
0.10221955656675967
0.10309408730370767
0.103975321946162
0.10486332449021925
0.10575815849796705
0.10665988716921314
0.10756857340667658
0.10848427987751898
0.10940706907208843
0.11033700335434837
0.11127414501129436
0.11221855629812164
0.11317029948012014
0.11412943687137433
0.11509603087086097
0.11607014399595147
0.11705183891340494
0.11804117846807888
0.11903822570992684
0.12004304392047317
0.12105569663298263
0.12207624765484715
0.12310476109215447
0.12414130136361784
0.12518593322002952
0.12623872176278192
0.12729973245557538
0.12836903108241493
0.1294466840021901
0.13053275779857204
0.13162731953424953
0.13273043670217982
0.13384217723704445
0.13496260952555864
0.13609180241669028
0.1372298252313308
0.13837674777138745
0.13953264032884038
0.14069757369404468
0.14187161916395136
0.14305484854996264
0.1442473341855044
0.14544914893359123
0.14666036619377634
0.14788105990892744
0.149111304572947
0.15035117522463953
0.15160074750808664
0.1528600975905476
0.15412930223307308
0.1554084387792654
0.1566975851616621
0.15799681990719489
0.159306222143714
0.1606258716057838
0.16195584864049364
0.16329623421325254
0.16464710991372938
0.16600855796139688
0.1673806612116366
0.16876350316141236
0.17015716795435493
0.17156174039122646
0.1729773059202219
0.17440395066537556
0.17584176141655639
0.17729082563900495
0.17875123147951372
0.1802230677735017
0.18170642405034315
0.1832013905363157
0.18470805816220248
0.1862265185751338
0.18775686413056328
0.18929918790938144
0.19085358372507608
0.1924202637110561
3.815795e-12
0.00142501128244249
0.002848590065625448
0.004269314189301071
0.005685782341203725
0.00709662390319675
0.008500508329805007
0.00989615381966101
0.01128233517131444
0.012657890690086826
0.014021728121032029
0.015372829477277888
0.016710254859768583
0.018033145196428735
0.019340723927446464
0.02063229777298975
0.02190725658721994
0.023165072401643304
0.024405297784191995
0.025627563570540638
0.026831576100109347
0.028017114046055634
0.029184024936114186
0.030332221451158697
0.03146167758117122
0.032572424711078504
0.03366454769413055
0.03473818096450716
0.03579350473009402
0.03683074127807379
0.037850151415403294
0.03885203106093037
0.03983670800709005
0.040804538843494866
0.041755906052209656
0.04269121526987586
0.043610892711523026
0.044515382748879256
0.045405145640931524
0.04628065539277898
0.047142397689906114
0.04799086815290849
0.04882657046036073
0.0496500147028623
0.05046171582534446
0.05126219215920927
0.05205196404378164
0.05283155253432578
0.053601478193076174
0.05436225995822051
0.05511441409193973
0.05585845320035192
0.05659488532466141
0.057324213100155064
0.05804693297976414
0.05876353451935569
0.059474499722255
0.060180302437492075
0.060881407811355426
0.06157827178632187
0.06227134064953621
0.06296105062232649
0.06364782748992316
0.06433208620806281
0.06501423088308081
0.06569465412119077
0.06637373707656537
0.0670518492093151
0.06772934815427376
0.06840657961828886
0.0690838773228197
0.06976156298366104
0.07043994633399685
0.07111932518394738
0.07179998552248328
0.07248220165864037
0.07316623640036396
0.07385234126949419
0.07454075675314475
0.0752317125825417
0.0759254280442489
0.0766221123150383
0.07732196481852267
0.0780251755997337
0.07873192571381427
0.07944238762568617
0.08015672561530965
0.08087509618743649
0.08159764848104556
0.08232452467606945
0.08305586039474495
0.08379178509528046
0.08453242245581144
0.0852778907469759
0.08602830319281651
0.08678376831607634
0.0875443901966847
0.08831026907982613
0.08908150124631625
0.08985817958452526
0.09064039380173801
0.09142823070636202
0.09222177433744
0.09302110615127841
0.09382630554520455
0.09463744981117013
0.09545461435147631
0.0962778728644202
0.09710729742745643
0.09794295898233579
0.09878492696873949
0.09963326979546482
0.10048805487745531
0.10134934874478535
0.10221721714948546
0.10309172516169557
0.1039729372593708
0.10486091741140655
0.1057557291546664
0.1066574356654394
0.10756609982574938
0.1084817842816502
0.10940455150536349
0.1103344638436818
0.11127158356768961
0.11221597291782663
0.11316769414566151
0.11412680955261226
0.11509338152601142
0.11606747257219689
0.11704914534776172
0.11803846268825638
0.11903548763430322
0.12004028345975906
0.12105291368992202
0.12207344212656374
0.12310193286646873
0.12413845032392173
0.12518305924359274
0.1262358247201461
0.12729681221412203
0.12836608753202003
0.12944371694444715
0.1305297671121955
0.13162430506739453
0.1327273982992213
0.13383911473866972
0.13495952276884152
0.13608869123540282
0.13722668945599767
0.13837358722937396
0.13952945484471432
0.14069436308930858
0.14186838325732418
0.14305158715744506
0.14424404712054656
0.1454458360068553
0.14665702721364904
0.14787769468162268
0.14910791290199665
0.15034775691441607
0.15159730235495775
0.15285662539136016
0.15412580278246615
0.15540491186985483
0.15669403058375153
0.15799323744911647
0.15930261159171127
0.16062223274405668
0.16195218125115873
0.16329253807641317
0.16464338480744894
0.16600480366177506
0.16737687749268118
0.16875968979491954
0.1701533247105848
0.17155786703390563
0.17297340222349053
0.17440001638879066
0.17583779632167432
0.1772868294857181
0.1787472040260663
0.1802190087758672
0.18170233326146198
0.1831972677076793
0.184703903044059
0.18622233091539028
0.18775264367101863
0.18929493439753647
0.19084929690138983
0.1924157673785104
-7.1249458e-11
0.001426525865862956
0.00285160814468971
0.004273813805063482
0.005691731003851452
0.007103979253988757
0.008509218815954907
0.009906159593943378
0.011293569066277098
0.012670279291477335
0.014035192869589458
0.015387287816669343
0.016725621341521432
0.018049332554526072
0.01935764411265417
0.020649862891632426
0.021925379743901297
0.023183668457104557
0.02442428399081799
0.025646860106525844
0.026851106497092676
0.028036805516463828
0.029203808606749405
0.03035203251262992
0.03148145536422521
0.03259211269822923
0.03368409347801232
0.034757536162916464
0.035812624867133554
0.03684958563992719
0.03786868288791807
0.038870215958881835
0.0398545158944104
0.04082194235439404
0.04177288071493908
0.04270773933581494
0.04362694699139164
0.04453095045709161
0.04542021224935483
0.04629520851198596
0.04715642690636607
0.04800436492107015
0.04883952799605874
0.04966242787632553
0.05047358105961741
0.051273507334218024
0.05206272840505537
0.052841766605335405
0.05361114369170526
0.05437137971559865
0.05512299197454792
0.05586649403531678
0.05660239482806248
0.05733119780851401
0.05805340018518895
0.05876949220704925
0.05947995651273817
0.06018526753144153
0.06088589093760872
0.061582283153984084
0.062274890899978216
0.06296415078552621
0.06365048894418897
0.06433432066403715
0.06501605022758374
0.06569607057548844
0.06637476298435419
0.06705249707707542
0.06772963058996369
0.06840650929243142
0.06908346692624848
0.06976082518555668
0.07043889373814449
0.07111797028663297
0.07179834067118136
0.07248027901156179
0.07316404788769597
0.07384989855815789
0.07453807121202276
0.07522879525303007
0.07592228961352834
0.07661876309315048
0.07731841471942177
0.0780214341261551
0.07872800194681735
0.07943829021687354
0.08015246278353093
0.08087067571860967
0.08159307773109113
0.08231981057661553
0.08305100946126043
0.08378680343728816
0.08452731578888836
0.08527266440620894
0.08602296214685208
0.08677831718275351
0.08753883326435458
0.08830461030319293
0.08907574428750505
0.08985232782188846
0.09063445034613365
0.09142219840658342
0.09221565578861696
0.0930149037504144
0.09382002146641892
0.09463108603166484
0.09544817266711723
0.09627135490125927
0.09710070473514437
0.09793629273224157
0.09877818840951315
0.09962645997931566
0.10048117473752483
0.10134239910454765
0.10221019872968892
0.10308463858824433
0.10396578307028255
0.1048536960632803
0.10574844102867606
0.10665008107282521
0.10755867901295567
0.10847429743640238
0.10939699875838846
0.11032684527487592
0.1112638992093186
0.11220822275800199
0.11315987813154209
0.11411892759330793
0.11508543349542696
0.11605945831155579
0.11704106466775657
0.11803031537127112
0.11902727343693131
0.12003200211195882
0.12104456490083304
0.12206502558329274
0.12309344823698
0.12412989725525234
0.1251744373641775
0.12622713365074212
0.12728805155057482
0.12835725685547122
0.12943481583020652
0.1305207951141778
0.13161526173036153
0.13271828315623257
0.13382992731145613
0.13495026256866194
0.13607935776333788
0.13721728220338425
0.13836410567832497
0.13951989846826657
0.14068473135197335
0.14185867561519522
0.1430418030585367
0.1442341860050259
0.1454358973074465
0.146647010355362
0.1478675990825399
0.14909773797158177
0.15033750206291274
0.15158696697523436
0.15284620887407954
0.1541153045117606
0.15539433122339052
0.156683366932715
0.15798249015846966
0.15929178002018154
0.16061131624416747
0.16194117916921574
0.16328144975265058
0.16463220957596666
0.16599354085065537
0.16736552642394456
0.16874824978448671
0.17014179506808627
0.17154624706353616
0.17296169122250996
0.17438821364910875
0.17582590112866653
0.17727484111886732
0.1787351217588906
0.18020683187592307
0.1816900609890708
0.183184899317982
0.18469143778590658
0.1862097680274099
0.18773998239509687
0.18928217396141217
0.19083643652877413
0.1924029493003472
-6.9463865e-11
0.001429058869837505
0.002856655515087334
0.004281338597515075
0.005701678698991991
0.007116278619865336
0.008523783247611771
0.009922888572266891
0.011312349812052168
0.012690988573284587
0.014057698877614308
0.01541145206529268
0.016751300563264362
0.018076380513333913
0.019385913320404888
0.020679206189927316
0.02195565172514248
0.023214726718931537
0.02445599020323098
0.02567908089898025
0.02688371416707731
0.02806967856897776
0.0292368321360543
0.03038509844527451
0.03151446257670627
0.03262496702843602
0.03371670764797038
0.034789829629793184
0.035844523618339286
0.03688102194626148
0.03789959503033627
0.03890054793522883
0.0398842171187198
0.04085096735573363
0.041801188841472346
0.04273529446844715
0.0436537172699757
0.044556908020991506
0.04544533299231714
0.04631947186522627
0.047179815614862834
0.04802686483622603
0.04886112789611776
0.049683119290750796
0.05049335810162651
0.0512923665417537
0.05208066858910072
0.05285878870454548
0.05362725063194125
0.054386576276548734
0.05513728465891918
0.05587989094446626
0.05661490554243265
0.05734283327339937
0.058064172601938316
0.058779414930925165
0.05948904395407581
0.06019353506528384
0.06089335481713891
0.06158896042942917
0.06228079934221875
0.06296930881205151
0.06365491543040719
0.06433803536793582
0.06501907295004145
0.06569842163100631
0.06637646302179799
0.06705356696699763
0.06773009137854634
0.0684063821307182
0.06908277299926337
0.06975958564153502
0.07043712961637717
0.07111570244702524
0.07179558972444301
0.07247706525110689
0.07316039122665663
0.07384581846683626
0.0745335866623159
0.07522392466825947
0.07591705082362779
0.07661317329626705
0.07731249045051106
0.07801519123233096
0.07872145556845117
0.07943145477605473
0.08014535197845431
0.08086330252349133
0.0815854544013077
0.08231194865847678
0.08304291980587701
0.0837784962176754
0.08451880052033163
0.0852639499688853
0.08601405680988186
0.08676922858084661
0.08752956863079872
0.0882951761730031
0.0890661467614147
0.08984257254363452
0.09062454251881605
0.09141214264452965
0.09220545637055788
0.09300456470938295
0.09380954644284471
0.09462047832290178
0.09543743526007532
0.09626049049724064
0.09708971577018748
0.0979251814342879
0.0987669566984416
0.09961510960273467
0.10046970724433228
0.10133081585959637
0.10219850092816464
0.1030728272676979
0.10395385912220653
0.10484166024387592
0.10573629396888964
0.10663782328782169
0.10754631090969945
0.108461819322143
0.10938441084933452
0.11031414770126186
0.11125109202223615
0.11219530593517302
0.11314685158258067
0.11410579116472197
0.11507218697538128
0.11604610143350064
0.11702759711460459
0.11801673677882275
0.11901358339683615
0.12001820017600956
0.1210306505815607
0.12205099835801031
0.12307930754976512
0.12411564251360886
0.12516006785928338
0.12621264883755207
0.12727345075793148
0.1283425393857901
0.12941998097157006
0.1305058421255148
0.13160018985239488
0.13270309161012211
0.13381461529990143
0.13493482927664602
0.1360638023589451
0.13720160383850652
0.13834830348954563
0.13950397157693684
0.14066867886535478
0.1418424966265616
0.14302549664775044
0.14421775123891806
0.14541933324024342
0.14663031602913046
0.14785077352695414
0.14908078020608628
0.15032041109468117
0.15156974179831764
0.15282884847285136
0.15409780785960614
0.1553766972829442
0.15666559465607488
0.15796457848717485
0.15927372788541283
0.16059312256674194
0.1619228428596216
0.16326296971121682
0.16461358469287074
0.16597477000592753
0.16734660848747132
0.1687291836162024
0.17012257951673476
0.17152688097111604
0.17294217341339463
0.1743685429470704
0.17580607634517043
0.177254861050396
0.1787149851944403
0.18018653759375153
0.18166960775723812
0.18316428589654837
0.18467066292158382
0.18618883045753687
0.18771888084514438
0.18926090715076432
0.1908150031594242
0.19238120818175178
-6.7743727e-11
0.001432623461354261
0.002863758269949758
0.004291927151767398
0.005715675702784612
0.007133583165940944
0.00854427264052915
0.009946420408952591
0.011338764440898319
0.012720111614640386
0.014089343915057118
0.01544542336342554
0.016787395751359388
0.018114393167870835
0.019425635399414054
0.020720430262628646
0.021998172990436486
0.023258344758126
0.024500510479568867
0.02572431599481491
0.026929484767415125
0.02811581420176273
0.02928317169507471
0.030431490511538133
0.031560765566036
0.032671049190168604
0.033762446940055243
0.03483511349453226
0.035889248680552724
0.036925093657869584
0.037942927273175935
0.038943062608334716
0.03992584368822595
0.04089164246046319
0.041840855851564634
0.04277390308755193
0.04369122315000107
0.04459327239829375
0.04548052234452807
0.04635345759652441
0.04721257376639761
0.0480583757878008
0.04889137611270167
0.049712093078627034
0.050521049375932256
0.05131877060519632
0.05210578392051843
0.052882616755989556
0.05364979563282553
0.05440784504616604
0.05515728642409092
0.05589863716504921
0.05663240974373604
0.05735911088607438
0.05807924080963902
0.05879329252635011
0.059501751202702194
0.060205093577124204
0.060903787426868736
0.061598291083010744
0.062289052990338635
0.0629765113087046
0.06366109343676474
0.06434321625297457
0.06502328471265736
0.06570169276951957
0.06637882250303095
0.06705504406684934
0.06773071562960811
0.06840618321474654
0.06908178064567216
0.06975782952770423
0.07043463926746663
0.07111250713570275
0.07179171837239967
0.07247254633377667
0.07315525268092517
0.07384008760650687
0.07452729009830288
0.07521708823728626
0.07590969952534463
0.07660533123958707
0.07730418080878987
0.07800643620906073
0.07871227637199894
0.07942187160309688
0.08013538400650087
0.08085296791134844
0.08157477029681995
0.08230093121277594
0.08303158419326602
0.08376685666080286
0.0845068703184558
0.08525174152976892
0.08600158167665495
0.0867564975356797
0.08751659158107342
0.08828196232018756
0.08905270459336605
0.08982890986226416
0.09061066648300835
0.09139805995742309
0.09219117311452411
0.09299008639359294
0.09379487809466504
0.0946056245200535
0.09542240015905798
0.0962452778591712
0.09707432898673539
0.09790962357549421
0.09875123046510013
0.09959921742781985
0.10045365128012289
0.10131459800569921
0.10218212284557375
0.10305629039752376
0.10393716470189111
0.10482480932220233
0.10571928741986328
0.10662066182332146
0.10752899509215474
0.10844434957665121
0.10936678747064824
0.11029637086521761
0.11123316179468543
0.11217722227970839
0.11312861436803144
0.11408740017195863
0.115053641902983
0.11602740190479122
0.11700874268234039
0.11799772693002335
0.11899441755785109
0.11999887771540257
0.12101117081409343
0.12203136055040487
0.1230595109216869
0.12409568623998951
0.1251399511843777
0.12619237075047435
0.12725301032219183
0.12832193563731198
0.12939921288936201
0.1304849086813043
0.13157908998227763
0.13268182422289176
0.1337931792784205
0.13491322347909362
0.13604202561989678
0.13717965497012138
0.13832618128213062
0.13948167480011447
0.14064620626848853
0.14181984693990068
0.1430026685827119
0.14419474348874706
0.14539614448049037
0.14660694491817583
0.14782721870672794
0.14905704030523348
0.1502964847180225
0.15154562754003706
0.15280454491096326
0.15407331355689055
0.15535201078702457
0.15664071449971767
0.15793950318846733
0.1592484559479116
0.1605676524795018
0.16189717309730933
0.16323709873421707
0.16458751094737914
0.16594849192397476
0.16732012448696534
0.16870249210075078
0.17009567887619184
0.17149976958071522
0.17291484963466594
0.1743410051262587
0.17577832281661834
0.1772268901336812
0.17868679519326747
0.18015812679845195
0.1816409744444327
0.18313542832758795
0.18464157933719774
0.1861595190992433
0.18768933992677628
0.18923113487217752
0.19078499771367566
0.19235107873276405
-6.6060712e-11
0.001437238312322106
0.002872953406945981
0.00430563409730654
0.005733793339925873
0.007155979593942614
0.008570787537197332
0.009976867887644202
0.011372936114796839
0.0127577800565047
0.014130266186623941
0.015489344582517217
0.016834052617588365
0.018163517351760194
0.019476956722742494
0.020773679611399636
0.022053084926117406
0.02331465978986606
0.02455797699280557
0.025782691833648605
0.026988538482356834
0.028175325979699607
0.029342934004597622
0.03049130848655189
0.0316204571650625
0.0327304451643665
0.033821390643520174
0.034893460568823455
0.035946866641884026
0.036981861419119404
0.037998734613191434
0.03899780963083484
0.03997944022732153
0.04094400754132001
0.04189191714598013
0.042823596403777565
0.043739491908545675
0.04464006717324661
0.04552580042316474
0.04639718256806717
0.04725471516173888
0.04809890869822856
0.04893028086280473
0.04974935491514153
0.050556658171552304
0.05135272057621129
0.052138073356537945
0.05291324776011351
0.05367877387111243
0.054435179504851446
0.055182989177561814
0.05592272314978686
0.05665489654276983
0.0573800185227416
0.05809859155148193
0.058811110699449456
0.05951806301775983
0.06021992696385252
0.060917171881075496
0.06161025752185342
0.06229963361613711
0.06298573947976198
0.06366900354542844
0.06434984360211095
0.06502866540434679
0.06570586357228522
0.06638182073809733
0.06705690752777489
0.06773148239574932
0.0684058915667826
0.06908046892766974
0.06975553601770448
0.0704314020452705
0.07110836395991013
0.07178670654137947
0.07246670256840224
0.07314861300423539
0.07383268723128629
0.07451916332464495
0.07520826835969566
0.0759002187511525
0.07659522061936701
0.07729347017900424
0.0779951541481653
0.07870045016736422
0.07940952723115663
0.08012254612370756
0.08083965985560093
0.0815610140983624
0.08228674761350707
0.08301699267336006
0.08375187547185566
0.08449151652049176
0.08523603104713284
0.08598552931019407
0.08674011703405082
0.0874998956890059
0.08826496282520199
0.0890354123758316
0.08981133494431393
0.09059281807378414
0.09137994649171294
0.09217280232129592
0.09297146536607528
0.0937760132838919
0.09458652178592698
0.09540306481371721
0.09622571470549098
0.09705454235364588
0.09788961735107851
0.09873100812654154
0.09957878209056019
0.10043300567078611
0.10129374454074877
0.10216106364024874
0.10303502728509463
0.10391569925517505
0.10480314287279
0.10569742107595732
0.1065985964862626
0.10750673147168387
0.10842188820486584
0.10934412871654628
0.11027351494434827
0.11121010878199207
0.11215397211940961
0.1131051668831167
0.1140637550729471
0.11502979879607642
0.11600336029866992
0.11698450199614706
0.11797328649874148
0.11896977664026913
0.11997403549173363
0.12098612640259715
0.12200611299446595
0.12303405923001931
0.12407002934978635
0.1251140879708191
0.1261663000544953
0.12722673093202788
0.12829544629914938
0.12937251231302146
0.13045799553147175
0.13155196288917093
0.13265448178189462
0.13376562005175446
0.13488544599735128
0.13601402838355192
0.1371514364506375
0.1382977399232352
0.1394530090189235
0.1406173144563857
0.1417907274633911
0.1429733197843821
0.1441651636878775
0.1453663319737238
0.14657689798009155
0.14779693558519005
0.1490265192437162
0.15026572392352883
0.15151462520236228
0.1527732992013751
0.15404182262714394
0.15532027276958052
0.156608727507965
0.15790726531695304
0.15921596527247087
0.16053490705726642
0.16186417096719757
0.16320383791660362
0.16455398944443494
0.16591470771967984
0.16728607554714192
0.1686681763731523
0.17006109429073474
0.1714649140473764
0.17287972104805638
0.17430560136154816
0.17574264173051352
0.1771909295602545
0.17865055296018528
0.1801216007044401
0.1816041622729055
0.1830983278447188
0.18460418828758082
0.1861218352113803
0.18765136090527418
0.18919285840897476
0.19074642147857646
0.19231209566479768
-6.4414536e-11
0.001442927844818621
0.002884289310571476
0.004322530878179083
0.005756124790937928
0.007183581153070325
0.008603459299783005
0.010014378159652976
0.011415025437963675
0.012804165459921059
0.014180645663897103
0.01554340161126301
0.016891460573280045
0.018223943754022198
0.019540067196552144
0.020839141519525872
0.022120570589190636
0.02338384928617874
0.024628560516070992
0.02585437161373931
0.027061030278799615
0.028248360189660843
0.029416256403728126
0.030564680652798024
0.03169365662550708
0.03280326530882251
0.03389364044743969
0.03496496416458879
0.03601746278117626
0.037051402847699325
0.03806708741553153
0.03906485246462477
0.04004506371351724
0.04100811349791604
0.04195441793166747
0.04288441423825141
0.043798558327997734
0.04469732239880452
0.04558119284058056
0.04645066822235817
0.047306257322138466
0.04814847740126457
0.04897785251312283
0.049794911908639036
0.05060018853718422
0.05139421763409531
0.05217753539004204
0.05295067769992358
0.05371417898991244
0.05446857112149683
0.055214382372001436
0.05595213648729729
0.05668235180948671
0.05740554047290357
0.058122207667243256
0.05883285096386744
0.059537959701279494
0.06023801442517493
0.060933486378597024
0.06162483703964525
0.06231251769917924
0.06299696897196874
0.06367862086946371
0.06435789197067733
0.06503518910230072
0.0657109077142948
0.06638543112283919
0.06705913049626844
0.0677323646952804
0.06840548015858003
0.06907881086197892
0.06975267826542719
0.07042739133703817
0.07110324662113321
0.07178052834125401
0.07245950855691054
0.0731404473684207
0.07382359315594998
0.07450918286459073
0.0751974423247605
0.07588858660541414
0.0765828203952229
0.07728033840794847
0.07798132580554677
0.07868595863400771
0.07939440426953959
0.08010682186810944
0.08082336281521543
0.08154417117210302
0.08226938411515292
0.08299913236581
0.08373354060840896
0.08447272789282573
0.08521680804595895
0.08596588996164452
0.08672007807636303
0.08747947262832058
0.08824416999732
0.08901426300791318
0.0897898412151505
0.09057099117075386
0.0913577966638104
0.09215033895783832
0.09294869706513521
0.09375294786904205
0.09456316636292109
0.09537942582160798
0.09620179796350428
0.09703035310451066
0.09786516030156427
0.09870628748557006
0.09955380158428061
0.10040776866011719
0.10126825392122071
0.10213532196455832
0.10300903676415635
0.10388946178369268
0.10477666005263223
0.10567069423784049
0.10657162670983822
0.10747951960411474
0.10839443487792406
0.10931643436305832
0.11024557981224396
0.11118193294798884
0.1121255555016664
0.11307650925269108
0.11403485606441503
0.11500065791735149
0.11597397693983608
0.1169548754377506
0.1179434159198196
0.1189396611238974
0.11994367403554411
0.12095551791441903
0.1219752563258035
0.12300295312666697
0.12403867251980395
0.12508247903967393
0.12613443759857068
0.1271946134709692
0.12826307229299583
0.1293398801823397
0.13042510364147725
0.13151880956307252
0.13262106530050766
0.13373193865555538
0.13485149788841114
0.13597981172713958
0.13711694937683763
0.13826298052843985
0.13941797536705375
0.1405820045801038
0.14175513936513565
0.1429374514373098
0.14412901303679423
0.1453298969359074
0.14654017644596715
0.1477599254260745
0.14898921828603306
0.150228129994755
0.15147673608569573
0.1527351126576732
0.1540033363970939
0.15528148457031257
0.15656963503338486
0.1578678662379162
0.15917625723678785
0.16049488769028813
0.16182383787176918
0.1631631886731907
0.16451302161112172
0.1658734188323668
0.16724446311955338
0.16862623789137127
0.17001882723189987
0.17142231585724202
0.17283678915132372
0.17426233316125664
0.17569903460406172
0.17714698087360786
0.17860626004019137
0.18007696087373895
0.18155917281848338
0.18305298603116893
0.18455849136773123
0.18607578040212583
0.18760494540947215
0.18914607940050246
0.1906992761101953
0.19226466044289808
-6.280769e-11
0.001449722556616656
0.002897826391725929
0.00434270667007966
0.005782786326051712
0.00721652907485312
0.008642451588912269
0.010059134534449218
0.011465232273937975
0.012859481090714248
0.014240705852997769
0.015607825052594858
0.01695985431710699
0.018295908366595254
0.019615201555165503
0.02091704718342032
0.022200855664924732
0.023466131760065533
0.024712471039081647
0.0259395557473958
0.027147150220675403
0.028335096026253337
0.029503306923582183
0.030651763778838118
0.0317805095185392
0.03288964419659535
0.03397932023173646
0.035049737854232765
0.0361011408023785
0.03713381226323613
0.038148071058070374
0.03914426813515594
0.04012278326975938
0.04108402202163025
0.04202841291260386
0.04295640480993163
0.043868464478323
0.044765074393822823
0.04564673051554451
0.046513940406080596
0.04736722132438427
0.04820709848679745
0.049034103433189744
0.04984877246076845
0.050651645147262246
0.05144326295690387
0.05222416792519967
0.05299490142082183
0.053756002984087746
0.054508009241776845
0.055251452897956035
0.055986861799575224
0.056714758075532244
0.05743565734717522
0.05815006800647404
0.058858490558397834
0.05956141702294008
0.06025933039196986
0.06095270413552889
0.06164200175330545
0.0623276763666832
0.0630101702420016
0.06368991486378449
0.06436733012249654
0.06504282399814104
0.06571679290649228
0.06638962098044861
0.06706168003882587
0.06773332940245858
0.06840491580852706
0.06907677332426276
0.06974922331769269
0.07042257447258929
0.07109712285148487
0.07177315200784389
0.07245093314567531
0.07313072532874154
0.07381277573474453
0.0744973199524888
0.07518458231792503
0.0758747762847868
0.07656810482542174
0.07726476085300595
0.07796492766509333
0.07866877939901082
0.07937648149532725
0.0800881911644708
0.08080405785208472
0.08152422369933185
0.08224882399480489
0.08297798761315531
0.08371183746106227
0.08445049082288528
0.08519405984757215
0.08594265186635246
0.0866963697654797
0.08745531232622407
0.08821957454611253
0.08898924794000874
0.08976442081772701
0.09054517853972371
0.09133160385277048
0.09212377700857528
0.092921776021525
0.0937256768860206
0.09453555375829639
0.09535147912965798
0.096173523989202
0.09700175797513524
0.09783624951491951
0.09867706595488067
0.09952427367991847
0.10037793824378242
0.10123812440488017
0.10210489631808027
0.10297831755841513
0.10385845121886743
0.10474535998565485
0.10563910620784726
0.10653975196175594
0.10744735911052558
0.10836198935938535
0.10928370430526482
0.11021256548610045
0.1111486344234035
0.11209197266264442
0.11304264181089801
0.11400070357159572
0.1149662197766545
0.11593925241682698
0.1169198636697592
0.11790811592407456
0.11890407180667409
0.1199077941088256
0.12091934618043645
0.12193879139574823
0.12296619353556873
0.12400161671279614
0.12504512540124582
0.12609678443097594
0.12715665901810017
0.12822481473901542
0.12930131764774386
0.13038623419324827
0.13147963121577752
0.13258157601892917
0.133692136357095
0.1348113804453054
0.1359393769684587
0.137076195090344
0.13822190446222454
0.1393765752310235
0.14054027804740613
0.1417130840733753
0.14289506498976812
0.14408629300331338
0.14528684085377724
0.14649678182097656
0.14771618973502434
0.148945138972847