 VARIABLES ="x" "y" "z"
 ZONE  T = Block1, I=401, J=2, K=2, DATAPACKING=BLOCK, VARLOCATION=([1-3]=NODAL), SOLUTIONTIME=0.100000000000000E+002, STRANDID = 0
 0.000000000000000E+000
 0.299999999999372E-003
 0.599999999998745E-003
 0.899999999998117E-003
 0.119999999999749E-002
 0.149999999999685E-002
 0.179999999999622E-002
 0.209999999999560E-002
 0.239999999999499E-002
 0.269999999999437E-002
 0.299999999999375E-002
 0.329999999999313E-002
 0.359999999999252E-002
 0.389999999999184E-002
 0.419999999999112E-002
 0.449999999999039E-002
 0.479999999998963E-002
 0.509999999998883E-002
 0.539999999998802E-002
 0.569999999998721E-002
 0.599999999998641E-002
 0.629999999998560E-002
 0.659999999998480E-002
 0.689999999998404E-002
 0.719999999998329E-002
 0.749999999998254E-002
 0.779999999998200E-002
 0.809999999998147E-002
 0.839999999998093E-002
 0.869999999998044E-002
 0.899999999997996E-002
 0.929999999997948E-002
 0.959999999997900E-002
 0.989999999997851E-002
 0.101999999999780E-001
 0.104999999999775E-001
 0.107999999999771E-001
 0.110999999999766E-001
 0.113999999999761E-001
 0.116999999999756E-001
 0.119999999999751E-001
 0.122999999999747E-001
 0.125999999999742E-001
 0.128999999999737E-001
 0.131999999999732E-001
 0.134999999999727E-001
 0.137999999999722E-001
 0.140999999999717E-001
 0.143999999999712E-001
 0.146999999999706E-001
 0.149999999999700E-001
 0.152999999999691E-001
 0.155999999999681E-001
 0.158999999999672E-001
 0.161999999999662E-001
 0.164999999999652E-001
 0.167999999999642E-001
 0.170999999999632E-001
 0.173999999999621E-001
 0.176999999999611E-001
 0.179999999999602E-001
 0.182999999999594E-001
 0.185999999999586E-001
 0.188999999999578E-001
 0.191999999999570E-001
 0.194999999999562E-001
 0.197999999999553E-001
 0.200999999999543E-001
 0.203999999999532E-001
 0.206999999999522E-001
 0.209999999999512E-001
 0.212999999999502E-001
 0.215999999999492E-001
 0.218999999999484E-001
 0.221999999999475E-001
 0.224999999999468E-001
 0.227999999999459E-001
 0.230999999999451E-001
 0.233999999999443E-001
 0.236999999999433E-001
 0.239999999999423E-001
 0.242999999999413E-001
 0.245999999999402E-001
 0.248999999999392E-001
 0.251999999999382E-001
 0.254999999999373E-001
 0.257999999999365E-001
 0.260999999999357E-001
 0.263999999999349E-001
 0.266999999999341E-001
 0.269999999999333E-001
 0.272999999999324E-001
 0.275999999999314E-001
 0.278999999999303E-001
 0.281999999999293E-001
 0.284999999999283E-001
 0.287999999999273E-001
 0.290999999999263E-001
 0.293999999999255E-001
 0.296999999999247E-001
 0.299999999999239E-001
 0.302999999999231E-001
 0.305999999999222E-001
 0.308999999999214E-001
 0.311999999999206E-001
 0.314999999999198E-001
 0.317999999999190E-001
 0.320999999999180E-001
 0.323999999999170E-001
 0.326999999999160E-001
 0.329999999999147E-001
 0.332999999999132E-001
 0.335999999999118E-001
 0.338999999999103E-001
 0.341999999999089E-001
 0.344999999999074E-001
 0.347999999999061E-001
 0.350999999999051E-001
 0.353999999999041E-001
 0.356999999999031E-001
 0.359999999999025E-001
 0.362999999999020E-001
 0.365999999999014E-001
 0.368999999999008E-001
 0.371999999999002E-001
 0.374999999998996E-001
 0.377999999998990E-001
 0.380999999998984E-001
 0.383999999998978E-001
 0.386999999998972E-001
 0.389999999998967E-001
 0.392999999998961E-001
 0.395999999998951E-001
 0.398999999998941E-001
 0.401999999998931E-001
 0.404999999998918E-001
 0.407999999998903E-001
 0.410999999998889E-001
 0.413999999998874E-001
 0.416999999998860E-001
 0.419999999998845E-001
 0.422999999998832E-001
 0.425999999998822E-001
 0.428999999998812E-001
 0.431999999998802E-001
 0.434999999998797E-001
 0.437999999998791E-001
 0.440999999998785E-001
 0.443999999998779E-001
 0.446999999998773E-001
 0.449999999998767E-001
 0.452999999998761E-001
 0.455999999998755E-001
 0.458999999998749E-001
 0.461999999998743E-001
 0.464999999998738E-001
 0.467999999998732E-001
 0.470999999998723E-001
 0.473999999998712E-001
 0.476999999998702E-001
 0.479999999998689E-001
 0.482999999998674E-001
 0.485999999998660E-001
 0.488999999998645E-001
 0.491999999998631E-001
 0.494999999998616E-001
 0.497999999998603E-001
 0.500999999998593E-001
 0.503999999998583E-001
 0.506999999998574E-001
 0.509999999998568E-001
 0.512999999998562E-001
 0.515999999998556E-001
 0.518999999998550E-001
 0.521999999998544E-001
 0.524999999998538E-001
 0.527999999998532E-001
 0.530999999998526E-001
 0.533999999998520E-001
 0.536999999998514E-001
 0.539999999998509E-001
 0.542999999998503E-001
 0.545999999998494E-001
 0.548999999998483E-001
 0.551999999998473E-001
 0.554999999998460E-001
 0.557999999998445E-001
 0.560999999998431E-001
 0.563999999998416E-001
 0.566999999998402E-001
 0.569999999998387E-001
 0.572999999998374E-001
 0.575999999998364E-001
 0.578999999998354E-001
 0.581999999998345E-001
 0.584999999998339E-001
 0.587999999998333E-001
 0.590999999998327E-001
 0.593999999998326E-001
 0.596999999998324E-001
 0.599999999998323E-001
 0.602999999998330E-001
 0.605999999998337E-001
 0.608999999998344E-001
 0.611999999998355E-001
 0.614999999998366E-001
 0.617999999998378E-001
 0.620999999998389E-001
 0.623999999998401E-001
 0.626999999998412E-001
 0.629999999998424E-001
 0.632999999998435E-001
 0.635999999998446E-001
 0.638999999998458E-001
 0.641999999998469E-001
 0.644999999998481E-001
 0.647999999998492E-001
 0.650999999998504E-001
 0.653999999998515E-001
 0.656999999998526E-001
 0.659999999998538E-001
 0.662999999998549E-001
 0.665999999998560E-001
 0.668999999998562E-001
 0.671999999998565E-001
 0.674999999998568E-001
 0.677999999998571E-001
 0.680999999998574E-001
 0.683999999998576E-001
 0.686999999998587E-001
 0.689999999998598E-001
 0.692999999998609E-001
 0.695999999998621E-001
 0.698999999998632E-001
 0.701999999998644E-001
 0.704999999998655E-001
 0.707999999998667E-001
 0.710999999998678E-001
 0.713999999998690E-001
 0.716999999998701E-001
 0.719999999998712E-001
 0.722999999998724E-001
 0.725999999998735E-001
 0.728999999998747E-001
 0.731999999998756E-001
 0.734999999998759E-001
 0.737999999998761E-001
 0.740999999998764E-001
 0.743999999998767E-001
 0.746999999998770E-001
 0.749999999998773E-001
 0.752999999998775E-001
 0.755999999998778E-001
 0.758999999998781E-001
 0.761999999998784E-001
 0.764999999998786E-001
 0.767999999998789E-001
 0.770999999998798E-001
 0.773999999998810E-001
 0.776999999998821E-001
 0.779999999998833E-001
 0.782999999998844E-001
 0.785999999998856E-001
 0.788999999998867E-001
 0.791999999998878E-001
 0.794999999998890E-001
 0.797999999998901E-001
 0.800999999998913E-001
 0.803999999998924E-001
 0.806999999998936E-001
 0.809999999998947E-001
 0.812999999998959E-001
 0.815999999998969E-001
 0.818999999998972E-001
 0.821999999998974E-001
 0.824999999998977E-001
 0.827999999998980E-001
 0.830999999998983E-001
 0.833999999998985E-001
 0.836999999998996E-001
 0.839999999999007E-001
 0.842999999999019E-001
 0.845999999999030E-001
 0.848999999999041E-001
 0.851999999999053E-001
 0.854999999999064E-001
 0.857999999999076E-001
 0.860999999999087E-001
 0.863999999999099E-001
 0.866999999999110E-001
 0.869999999999121E-001
 0.872999999999133E-001
 0.875999999999144E-001
 0.878999999999156E-001
 0.881999999999165E-001
 0.884999999999168E-001
 0.887999999999171E-001
 0.890999999999173E-001
 0.893999999999176E-001
 0.896999999999179E-001
 0.899999999999182E-001
 0.902999999999185E-001
 0.905999999999187E-001
 0.908999999999190E-001
 0.911999999999193E-001
 0.914999999999196E-001
 0.917999999999198E-001
 0.920999999999208E-001
 0.923999999999219E-001
 0.926999999999231E-001
 0.929999999999242E-001
 0.932999999999253E-001
 0.935999999999265E-001
 0.938999999999276E-001
 0.941999999999288E-001
 0.944999999999299E-001
 0.947999999999310E-001
 0.950999999999322E-001
 0.953999999999333E-001
 0.956999999999345E-001
 0.959999999999356E-001
 0.962999999999368E-001
 0.965999999999378E-001
 0.968999999999381E-001
 0.971999999999383E-001
 0.974999999999386E-001
 0.977999999999389E-001
 0.980999999999392E-001
 0.983999999999395E-001
 0.986999999999405E-001
 0.989999999999416E-001
 0.992999999999428E-001
 0.995999999999439E-001
 0.998999999999451E-001
 0.100199999999946E+000
 0.100499999999947E+000
 0.100799999999949E+000
 0.101099999999950E+000
 0.101399999999951E+000
 0.101699999999952E+000
 0.101999999999953E+000
 0.102299999999954E+000
 0.102599999999955E+000
 0.102899999999956E+000
 0.103199999999957E+000
 0.103499999999958E+000
 0.103799999999958E+000
 0.104099999999958E+000
 0.104399999999958E+000
 0.104699999999959E+000
 0.104999999999959E+000
 0.105299999999959E+000
 0.105599999999960E+000
 0.105899999999960E+000
 0.106199999999960E+000
 0.106499999999961E+000
 0.106799999999961E+000
 0.107099999999962E+000
 0.107399999999963E+000
 0.107699999999964E+000
 0.107999999999965E+000
 0.108299999999966E+000
 0.108599999999967E+000
 0.108899999999968E+000
 0.109199999999970E+000
 0.109499999999971E+000
 0.109799999999972E+000
 0.110099999999973E+000
 0.110399999999974E+000
 0.110699999999975E+000
 0.110999999999977E+000
 0.111299999999978E+000
 0.111599999999979E+000
 0.111899999999979E+000
 0.112199999999979E+000
 0.112499999999980E+000
 0.112799999999980E+000
 0.113099999999980E+000
 0.113399999999980E+000
 0.113699999999981E+000
 0.113999999999983E+000
 0.114299999999984E+000
 0.114599999999985E+000
 0.114899999999986E+000
 0.115199999999987E+000
 0.115499999999988E+000
 0.115799999999989E+000
 0.116099999999991E+000
 0.116399999999992E+000
 0.116699999999993E+000
 0.116999999999994E+000
 0.117299999999995E+000
 0.117599999999996E+000
 0.117899999999997E+000
 0.118199999999998E+000
 0.118499999999999E+000
 0.118799999999999E+000
 0.119099999999999E+000
 0.119400000000000E+000
 0.119700000000000E+000
 0.120000000000000E+000
 0.000000000000000E+000
 0.300000000000300E-003
 0.600000000000586E-003
 0.900000000000872E-003
 0.120000000000116E-002
 0.150000000000146E-002
 0.180000000000175E-002
 0.210000000000268E-002
 0.240000000000384E-002
 0.270000000000500E-002
 0.300000000000616E-002
 0.330000000000732E-002
 0.360000000000847E-002
 0.390000000000966E-002
 0.420000000001081E-002
 0.450000000001198E-002
 0.480000000001313E-002
 0.510000000001427E-002
 0.540000000001545E-002
 0.570000000001659E-002
 0.600000000001777E-002
 0.630000000001891E-002
 0.660000000001998E-002
 0.690000000002025E-002
 0.720000000002055E-002
 0.750000000002084E-002
 0.780000000002114E-002
 0.810000000002142E-002
 0.840000000002171E-002
 0.870000000002276E-002
 0.900000000002392E-002
 0.930000000002508E-002
 0.960000000002624E-002
 0.990000000002739E-002
 0.102000000000286E-001
 0.105000000000297E-001
 0.108000000000309E-001
 0.111000000000320E-001
 0.114000000000332E-001
 0.117000000000344E-001
 0.120000000000355E-001
 0.123000000000367E-001
 0.126000000000378E-001
 0.129000000000390E-001
 0.132000000000399E-001
 0.135000000000402E-001
 0.138000000000405E-001
 0.141000000000408E-001
 0.144000000000411E-001
 0.147000000000414E-001
 0.150000000000417E-001
 0.153000000000420E-001
 0.156000000000423E-001
 0.159000000000425E-001
 0.162000000000428E-001
 0.165000000000431E-001
 0.168000000000434E-001
 0.171000000000443E-001
 0.174000000000455E-001
 0.177000000000467E-001
 0.180000000000478E-001
 0.183000000000490E-001
 0.186000000000501E-001
 0.189000000000513E-001
 0.192000000000525E-001
 0.195000000000536E-001
 0.198000000000548E-001
 0.201000000000560E-001
 0.204000000000571E-001
 0.207000000000583E-001
 0.210000000000594E-001
 0.213000000000606E-001
 0.216000000000616E-001
 0.219000000000619E-001
 0.222000000000622E-001
 0.225000000000625E-001
 0.228000000000628E-001
 0.231000000000631E-001
 0.234000000000634E-001
 0.237000000000644E-001
 0.240000000000656E-001
 0.243000000000667E-001
 0.246000000000679E-001
 0.249000000000691E-001
 0.252000000000702E-001
 0.255000000000714E-001
 0.258000000000725E-001
 0.261000000000737E-001
 0.264000000000749E-001
 0.267000000000760E-001
 0.270000000000772E-001
 0.273000000000783E-001
 0.276000000000795E-001
 0.279000000000807E-001
 0.282000000000816E-001
 0.285000000000819E-001
 0.288000000000822E-001
 0.291000000000825E-001
 0.294000000000827E-001
 0.297000000000830E-001
 0.300000000000833E-001
 0.303000000000836E-001
 0.306000000000839E-001
 0.309000000000842E-001
 0.312000000000845E-001
 0.315000000000848E-001
 0.318000000000851E-001
 0.321000000000860E-001
 0.324000000000872E-001
 0.327000000000883E-001
 0.330000000000895E-001
 0.333000000000907E-001
 0.336000000000918E-001
 0.339000000000930E-001
 0.342000000000941E-001
 0.345000000000953E-001
 0.348000000000965E-001
 0.351000000000976E-001
 0.354000000000988E-001
 0.357000000000999E-001
 0.360000000001011E-001
 0.363000000001023E-001
 0.366000000001033E-001
 0.369000000001036E-001
 0.372000000001039E-001
 0.375000000001042E-001
 0.378000000001045E-001
 0.381000000001048E-001
 0.384000000001050E-001
 0.387000000001061E-001
 0.390000000001072E-001
 0.393000000001084E-001
 0.396000000001096E-001
 0.399000000001107E-001
 0.402000000001119E-001
 0.405000000001130E-001
 0.408000000001142E-001
 0.411000000001154E-001
 0.414000000001165E-001
 0.417000000001177E-001
 0.420000000001189E-001
 0.423000000001200E-001
 0.426000000001212E-001
 0.429000000001223E-001
 0.432000000001233E-001
 0.435000000001236E-001
 0.438000000001239E-001
 0.441000000001241E-001
 0.444000000001244E-001
 0.447000000001247E-001
 0.450000000001250E-001
 0.453000000001253E-001
 0.456000000001256E-001
 0.459000000001259E-001
 0.462000000001262E-001
 0.465000000001264E-001
 0.468000000001267E-001
 0.471000000001277E-001
 0.474000000001288E-001
 0.477000000001300E-001
 0.480000000001312E-001
 0.483000000001323E-001
 0.486000000001335E-001
 0.489000000001346E-001
 0.492000000001358E-001
 0.495000000001370E-001
 0.498000000001381E-001
 0.501000000001393E-001
 0.504000000001404E-001
 0.507000000001416E-001
 0.510000000001428E-001
 0.513000000001439E-001
 0.516000000001450E-001
 0.519000000001453E-001
 0.522000000001455E-001
 0.525000000001458E-001
 0.528000000001461E-001
 0.531000000001464E-001
 0.534000000001467E-001
 0.537000000001477E-001
 0.540000000001489E-001
 0.543000000001501E-001
 0.546000000001512E-001
 0.549000000001524E-001
 0.552000000001536E-001
 0.555000000001547E-001
 0.558000000001559E-001
 0.561000000001570E-001
 0.564000000001582E-001
 0.567000000001594E-001
 0.570000000001605E-001
 0.573000000001617E-001
 0.576000000001628E-001
 0.579000000001640E-001
 0.582000000001651E-001
 0.585000000001663E-001
 0.588000000001675E-001
 0.591000000001686E-001
 0.594000000001693E-001
 0.597000000001700E-001
 0.600000000001707E-001
 0.603000000001706E-001
 0.606000000001705E-001
 0.609000000001703E-001
 0.612000000001698E-001
 0.615000000001692E-001
 0.618000000001686E-001
 0.621000000001674E-001
 0.624000000001660E-001
 0.627000000001645E-001
 0.630000000001625E-001
 0.633000000001602E-001
 0.636000000001579E-001
 0.639000000001561E-001
 0.642000000001546E-001
 0.645000000001532E-001
 0.648000000001520E-001
 0.651000000001515E-001
 0.654000000001509E-001
 0.657000000001501E-001
 0.660000000001486E-001
 0.663000000001472E-001
 0.666000000001458E-001
 0.669000000001443E-001
 0.672000000001429E-001
 0.675000000001414E-001
 0.678000000001417E-001
 0.681000000001420E-001
 0.684000000001423E-001
 0.687000000001426E-001
 0.690000000001429E-001
 0.693000000001432E-001
 0.696000000001422E-001
 0.699000000001407E-001
 0.702000000001393E-001
 0.705000000001378E-001
 0.708000000001364E-001
 0.711000000001350E-001
 0.714000000001340E-001
 0.717000000001334E-001
 0.720000000001328E-001
 0.723000000001319E-001
 0.726000000001304E-001
 0.729000000001290E-001
 0.732000000001276E-001
 0.735000000001261E-001
 0.738000000001247E-001
 0.741000000001235E-001
 0.744000000001238E-001
 0.747000000001240E-001
 0.750000000001243E-001
 0.753000000001246E-001
 0.756000000001249E-001
 0.759000000001252E-001
 0.762000000001240E-001
 0.765000000001225E-001
 0.768000000001211E-001
 0.771000000001197E-001
 0.774000000001182E-001
 0.777000000001168E-001
 0.780000000001159E-001
 0.783000000001153E-001
 0.786000000001147E-001
 0.789000000001137E-001
 0.792000000001123E-001
 0.795000000001108E-001
 0.798000000001094E-001
 0.801000000001079E-001
 0.804000000001065E-001
 0.807000000001055E-001
 0.810000000001058E-001
 0.813000000001061E-001
 0.816000000001064E-001
 0.819000000001066E-001
 0.822000000001069E-001
 0.825000000001072E-001
 0.828000000001058E-001
 0.831000000001043E-001
 0.834000000001029E-001
 0.837000000001015E-001
 0.840000000001000E-001
 0.843000000000986E-001
 0.846000000000978E-001
 0.849000000000972E-001
 0.852000000000966E-001
 0.855000000000955E-001
 0.858000000000941E-001
 0.861000000000926E-001
 0.864000000000907E-001
 0.867000000000884E-001
 0.870000000000861E-001
 0.873000000000845E-001
 0.876000000000839E-001
 0.879000000000833E-001
 0.882000000000830E-001
 0.885000000000832E-001
 0.888000000000835E-001
 0.891000000000836E-001
 0.894000000000822E-001
 0.897000000000807E-001
 0.900000000000793E-001
 0.903000000000778E-001
 0.906000000000764E-001
 0.909000000000749E-001
 0.912000000000743E-001
 0.915000000000737E-001
 0.918000000000731E-001
 0.921000000000725E-001
 0.924000000000720E-001
 0.927000000000714E-001
 0.930000000000708E-001
 0.933000000000702E-001
 0.936000000000697E-001
 0.939000000000691E-001
 0.942000000000685E-001
 0.945000000000679E-001
 0.948000000000674E-001
 0.951000000000668E-001
 0.954000000000662E-001
 0.957000000000654E-001
 0.960000000000640E-001
 0.963000000000625E-001
 0.966000000000611E-001
 0.969000000000596E-001
 0.972000000000582E-001
 0.975000000000567E-001
 0.978000000000562E-001
 0.981000000000556E-001
 0.984000000000550E-001
 0.987000000000545E-001
 0.990000000000539E-001
 0.993000000000533E-001
 0.996000000000521E-001
 0.999000000000506E-001
 0.100200000000049E+000
 0.100500000000048E+000
 0.100800000000046E+000
 0.101100000000045E+000
 0.101400000000044E+000
 0.101700000000043E+000
 0.102000000000043E+000
 0.102300000000042E+000
 0.102600000000040E+000
 0.102900000000039E+000
 0.103200000000037E+000
 0.103500000000036E+000
 0.103800000000035E+000
 0.104100000000033E+000
 0.104400000000033E+000
 0.104700000000032E+000
 0.105000000000031E+000
 0.105300000000031E+000
 0.105600000000030E+000
 0.105900000000030E+000
 0.106200000000029E+000
 0.106500000000029E+000
 0.106800000000028E+000
 0.107100000000028E+000
 0.107400000000027E+000
 0.107700000000026E+000
 0.108000000000026E+000
 0.108300000000025E+000
 0.108600000000025E+000
 0.108900000000024E+000
 0.109200000000023E+000
 0.109500000000023E+000
 0.109800000000022E+000
 0.110100000000022E+000
 0.110400000000021E+000
 0.110700000000021E+000
 0.111000000000021E+000
 0.111300000000021E+000
 0.111600000000022E+000
 0.111900000000022E+000
 0.112200000000022E+000
 0.112500000000022E+000
 0.112800000000021E+000
 0.113100000000020E+000
 0.113400000000018E+000
 0.113700000000017E+000
 0.114000000000015E+000
 0.114300000000014E+000
 0.114600000000013E+000
 0.114900000000013E+000
 0.115200000000012E+000
 0.115500000000011E+000
 0.115800000000011E+000
 0.116100000000010E+000
 0.116400000000010E+000
 0.116700000000009E+000
 0.117000000000008E+000
 0.117300000000008E+000
 0.117600000000007E+000
 0.117900000000007E+000
 0.118200000000006E+000
 0.118500000000006E+000
 0.118800000000005E+000
 0.119100000000004E+000
 0.119400000000003E+000
 0.119700000000001E+000
 0.120000000000000E+000
 0.000000000000000E+000
 0.299999999999372E-003
 0.599999999998745E-003
 0.899999999998117E-003
 0.119999999999749E-002
 0.149999999999685E-002
 0.179999999999622E-002
 0.209999999999560E-002
 0.239999999999499E-002
 0.269999999999437E-002
 0.299999999999375E-002
 0.329999999999313E-002
 0.359999999999252E-002
 0.389999999999184E-002
 0.419999999999112E-002
 0.449999999999039E-002
 0.479999999998963E-002
 0.509999999998883E-002
 0.539999999998802E-002
 0.569999999998721E-002
 0.599999999998641E-002
 0.629999999998560E-002
 0.659999999998480E-002
 0.689999999998404E-002
 0.719999999998329E-002
 0.749999999998254E-002
 0.779999999998200E-002
 0.809999999998147E-002
 0.839999999998093E-002
 0.869999999998044E-002
 0.899999999997996E-002
 0.929999999997948E-002
 0.959999999997900E-002
 0.989999999997851E-002
 0.101999999999780E-001
 0.104999999999775E-001
 0.107999999999771E-001
 0.110999999999766E-001
 0.113999999999761E-001
 0.116999999999756E-001
 0.119999999999751E-001
 0.122999999999747E-001
 0.125999999999742E-001
 0.128999999999737E-001
 0.131999999999732E-001
 0.134999999999727E-001
 0.137999999999722E-001
 0.140999999999717E-001
 0.143999999999712E-001
 0.146999999999706E-001
 0.149999999999700E-001
 0.152999999999691E-001
 0.155999999999681E-001
 0.158999999999672E-001
 0.161999999999662E-001
 0.164999999999652E-001
 0.167999999999642E-001
 0.170999999999632E-001
 0.173999999999621E-001
 0.176999999999611E-001
 0.179999999999602E-001
 0.182999999999594E-001
 0.185999999999586E-001
 0.188999999999578E-001
 0.191999999999570E-001
 0.194999999999562E-001
 0.197999999999553E-001
 0.200999999999543E-001
 0.203999999999532E-001
 0.206999999999522E-001
 0.209999999999512E-001
 0.212999999999502E-001
 0.215999999999492E-001
 0.218999999999484E-001
 0.221999999999475E-001
 0.224999999999468E-001
 0.227999999999459E-001
 0.230999999999451E-001
 0.233999999999443E-001
 0.236999999999433E-001
 0.239999999999423E-001
 0.242999999999413E-001
 0.245999999999402E-001
 0.248999999999392E-001
 0.251999999999382E-001
 0.254999999999373E-001
 0.257999999999365E-001
 0.260999999999357E-001
 0.263999999999349E-001
 0.266999999999341E-001
 0.269999999999333E-001
 0.272999999999324E-001
 0.275999999999314E-001
 0.278999999999303E-001
 0.281999999999293E-001
 0.284999999999283E-001
 0.287999999999273E-001
 0.290999999999263E-001
 0.293999999999255E-001
 0.296999999999247E-001
 0.299999999999239E-001
 0.302999999999231E-001
 0.305999999999222E-001
 0.308999999999214E-001
 0.311999999999206E-001
 0.314999999999198E-001
 0.317999999999190E-001
 0.320999999999180E-001
 0.323999999999170E-001
 0.326999999999160E-001
 0.329999999999147E-001
 0.332999999999132E-001
 0.335999999999118E-001
 0.338999999999103E-001
 0.341999999999089E-001
 0.344999999999074E-001
 0.347999999999061E-001
 0.350999999999051E-001
 0.353999999999041E-001
 0.356999999999031E-001
 0.359999999999025E-001
 0.362999999999020E-001
 0.365999999999014E-001
 0.368999999999008E-001
 0.371999999999002E-001
 0.374999999998996E-001
 0.377999999998990E-001
 0.380999999998984E-001
 0.383999999998978E-001
 0.386999999998972E-001
 0.389999999998967E-001
 0.392999999998961E-001
 0.395999999998951E-001
 0.398999999998941E-001
 0.401999999998931E-001
 0.404999999998918E-001
 0.407999999998903E-001
 0.410999999998889E-001
 0.413999999998874E-001
 0.416999999998860E-001
 0.419999999998845E-001
 0.422999999998832E-001
 0.425999999998822E-001
 0.428999999998812E-001
 0.431999999998802E-001
 0.434999999998797E-001
 0.437999999998791E-001
 0.440999999998785E-001
 0.443999999998779E-001
 0.446999999998773E-001
 0.449999999998767E-001
 0.452999999998761E-001
 0.455999999998755E-001
 0.458999999998749E-001
 0.461999999998743E-001
 0.464999999998738E-001
 0.467999999998732E-001
 0.470999999998723E-001
 0.473999999998712E-001
 0.476999999998702E-001
 0.479999999998689E-001
 0.482999999998674E-001
 0.485999999998660E-001
 0.488999999998645E-001
 0.491999999998631E-001
 0.494999999998616E-001
 0.497999999998603E-001
 0.500999999998593E-001
 0.503999999998583E-001
 0.506999999998574E-001
 0.509999999998568E-001
 0.512999999998562E-001
 0.515999999998556E-001
 0.518999999998550E-001
 0.521999999998544E-001
 0.524999999998538E-001
 0.527999999998532E-001
 0.530999999998526E-001
 0.533999999998520E-001
 0.536999999998514E-001
 0.539999999998509E-001
 0.542999999998503E-001
 0.545999999998494E-001
 0.548999999998483E-001
 0.551999999998473E-001
 0.554999999998460E-001
 0.557999999998445E-001
 0.560999999998431E-001
 0.563999999998416E-001
 0.566999999998402E-001
 0.569999999998387E-001
 0.572999999998374E-001
 0.575999999998364E-001
 0.578999999998354E-001
 0.581999999998345E-001
 0.584999999998339E-001
 0.587999999998333E-001
 0.590999999998327E-001
 0.593999999998326E-001
 0.596999999998324E-001
 0.599999999998323E-001
 0.602999999998330E-001
 0.605999999998337E-001
 0.608999999998344E-001
 0.611999999998355E-001
 0.614999999998366E-001
 0.617999999998378E-001
 0.620999999998389E-001
 0.623999999998401E-001
 0.626999999998412E-001
 0.629999999998424E-001
 0.632999999998435E-001
 0.635999999998446E-001
 0.638999999998458E-001
 0.641999999998469E-001
 0.644999999998481E-001
 0.647999999998492E-001
 0.650999999998504E-001
 0.653999999998515E-001
 0.656999999998526E-001
 0.659999999998538E-001
 0.662999999998549E-001
 0.665999999998560E-001
 0.668999999998562E-001
 0.671999999998565E-001
 0.674999999998568E-001
 0.677999999998571E-001
 0.680999999998574E-001
 0.683999999998576E-001
 0.686999999998587E-001
 0.689999999998598E-001
 0.692999999998609E-001
 0.695999999998621E-001
 0.698999999998632E-001
 0.701999999998644E-001
 0.704999999998655E-001
 0.707999999998667E-001
 0.710999999998678E-001
 0.713999999998690E-001
 0.716999999998701E-001
 0.719999999998712E-001
 0.722999999998724E-001
 0.725999999998735E-001
 0.728999999998747E-001
 0.731999999998756E-001
 0.734999999998759E-001
 0.737999999998761E-001
 0.740999999998764E-001
 0.743999999998767E-001
 0.746999999998770E-001
 0.749999999998773E-001
 0.752999999998775E-001
 0.755999999998778E-001
 0.758999999998781E-001
 0.761999999998784E-001
 0.764999999998786E-001
 0.767999999998789E-001
 0.770999999998798E-001
 0.773999999998810E-001
 0.776999999998821E-001
 0.779999999998833E-001
 0.782999999998844E-001
 0.785999999998856E-001
 0.788999999998867E-001
 0.791999999998878E-001
 0.794999999998890E-001
 0.797999999998901E-001
 0.800999999998913E-001
 0.803999999998924E-001
 0.806999999998936E-001
 0.809999999998947E-001
 0.812999999998959E-001
 0.815999999998969E-001
 0.818999999998972E-001
 0.821999999998974E-001
 0.824999999998977E-001
 0.827999999998980E-001
 0.830999999998983E-001
 0.833999999998985E-001
 0.836999999998996E-001
 0.839999999999007E-001
 0.842999999999019E-001
 0.845999999999030E-001
 0.848999999999041E-001
 0.851999999999053E-001
 0.854999999999064E-001
 0.857999999999076E-001
 0.860999999999087E-001
 0.863999999999099E-001
 0.866999999999110E-001
 0.869999999999121E-001
 0.872999999999133E-001
 0.875999999999144E-001
 0.878999999999156E-001
 0.881999999999165E-001
 0.884999999999168E-001
 0.887999999999171E-001
 0.890999999999173E-001
 0.893999999999176E-001
 0.896999999999179E-001
 0.899999999999182E-001
 0.902999999999185E-001
 0.905999999999187E-001
 0.908999999999190E-001
 0.911999999999193E-001
 0.914999999999196E-001
 0.917999999999198E-001
 0.920999999999208E-001
 0.923999999999219E-001
 0.926999999999231E-001
 0.929999999999242E-001
 0.932999999999253E-001
 0.935999999999265E-001
 0.938999999999276E-001
 0.941999999999288E-001
 0.944999999999299E-001
 0.947999999999310E-001
 0.950999999999322E-001
 0.953999999999333E-001
 0.956999999999345E-001
 0.959999999999356E-001
 0.962999999999368E-001
 0.965999999999378E-001
 0.968999999999381E-001
 0.971999999999383E-001
 0.974999999999386E-001
 0.977999999999389E-001
 0.980999999999392E-001
 0.983999999999395E-001
 0.986999999999405E-001
 0.989999999999416E-001
 0.992999999999428E-001
 0.995999999999439E-001
 0.998999999999451E-001
 0.100199999999946E+000
 0.100499999999947E+000
 0.100799999999949E+000
 0.101099999999950E+000
 0.101399999999951E+000
 0.101699999999952E+000
 0.101999999999953E+000
 0.102299999999954E+000
 0.102599999999955E+000
 0.102899999999956E+000
 0.103199999999957E+000
 0.103499999999958E+000
 0.103799999999958E+000
 0.104099999999958E+000
 0.104399999999958E+000
 0.104699999999959E+000
 0.104999999999959E+000
 0.105299999999959E+000
 0.105599999999960E+000
 0.105899999999960E+000
 0.106199999999960E+000
 0.106499999999961E+000
 0.106799999999961E+000
 0.107099999999962E+000
 0.107399999999963E+000
 0.107699999999964E+000
 0.107999999999965E+000
 0.108299999999966E+000
 0.108599999999967E+000
 0.108899999999968E+000
 0.109199999999970E+000
 0.109499999999971E+000
 0.109799999999972E+000
 0.110099999999973E+000
 0.110399999999974E+000
 0.110699999999975E+000
 0.110999999999977E+000
 0.111299999999978E+000
 0.111599999999979E+000
 0.111899999999979E+000
 0.112199999999979E+000
 0.112499999999980E+000
 0.112799999999980E+000
 0.113099999999980E+000
 0.113399999999980E+000
 0.113699999999981E+000
 0.113999999999983E+000
 0.114299999999984E+000
 0.114599999999985E+000
 0.114899999999986E+000
 0.115199999999987E+000
 0.115499999999988E+000
 0.115799999999989E+000
 0.116099999999991E+000
 0.116399999999992E+000
 0.116699999999993E+000
 0.116999999999994E+000
 0.117299999999995E+000
 0.117599999999996E+000
 0.117899999999997E+000
 0.118199999999998E+000
 0.118499999999999E+000
 0.118799999999999E+000
 0.119099999999999E+000
 0.119400000000000E+000
 0.119700000000000E+000
 0.120000000000000E+000
 0.000000000000000E+000
 0.300000000000300E-003
 0.600000000000586E-003
 0.900000000000872E-003
 0.120000000000116E-002
 0.150000000000146E-002
 0.180000000000175E-002
 0.210000000000268E-002
 0.240000000000384E-002
 0.270000000000500E-002
 0.300000000000616E-002
 0.330000000000732E-002
 0.360000000000847E-002
 0.390000000000966E-002
 0.420000000001081E-002
 0.450000000001198E-002
 0.480000000001313E-002
 0.510000000001427E-002
 0.540000000001545E-002
 0.570000000001659E-002
 0.600000000001777E-002
 0.630000000001891E-002
 0.660000000001998E-002
 0.690000000002025E-002
 0.720000000002055E-002
 0.750000000002084E-002
 0.780000000002114E-002
 0.810000000002142E-002
 0.840000000002171E-002
 0.870000000002276E-002
 0.900000000002392E-002
 0.930000000002508E-002
 0.960000000002624E-002
 0.990000000002739E-002
 0.102000000000286E-001
 0.105000000000297E-001
 0.108000000000309E-001
 0.111000000000320E-001
 0.114000000000332E-001
 0.117000000000344E-001